 running   24 mpi-ranks, with    1 threads/rank, on    1 nodes
 distrk:  each k-point on   24 cores,    1 groups
 distr:  one band on    1 cores,   24 groups
 vasp.6.4.3 19Mar24 (build May 31 2024 16:31:43) complex                        
  
 POSCAR found type information on POSCAR B 
 POSCAR found :  1 types and      14 ions
 Reading from existing POTCAR
 scaLAPACK will be used
 Reading from existing POTCAR
 LDA part: xc-table for (Slater+PW92), standard interpolation
 WARNING: stress and forces are not correct
 POSCAR, INCAR and KPOINTS ok, starting setup
 FFT: planning ... GRIDC
 FFT: planning ... GRID_SOFT
 FFT: planning ... GRID
 WAVECAR not read
 charge-density read from file: SC                                      
 entering main loop
       N       E                     dE             d eps       ncg     rms          rms(c)
DAV:   1     0.120062362732E+03    0.12006E+03   -0.19797E+04 16128   0.862E+02
DAV:   2    -0.465850655019E+02   -0.16665E+03   -0.15065E+03 22416   0.162E+02
DAV:   3    -0.523178442298E+02   -0.57328E+01   -0.56867E+01 22296   0.269E+01
DAV:   4    -0.523448640184E+02   -0.27020E-01   -0.27016E-01 19848   0.220E+00
DAV:   5    -0.523450742445E+02   -0.21023E-03   -0.21020E-03 21456   0.181E-01
DAV:   6    -0.523450767423E+02   -0.24977E-05   -0.24977E-05 19512   0.194E-02
DAV:   7    -0.523450767780E+02   -0.35768E-07   -0.35720E-07 20088   0.217E-03
   1 F= -.54548797E+02 E0= -.54526425E+02  d E =-.447443E-01
 writing wavefunctions
