   14   14    1    1
  0.1021960E+02  0.5697000E-09  0.4047900E-09  0.6204200E-09  0.5000000E-15
  1.000000000000000E-004
  CAR 
 Kpoints                                 
     42    175     48
 
  0.5000000E-01  0.3571429E-01  0.0000000E+00  0.3174603E-02
      1        -12.737748   1.000000
      2        -11.583315   1.000000
      3         -8.660315   1.000000
      4         -8.423550   1.000000
      5         -6.063290   1.000000
      6         -5.126220   1.000000
      7         -4.658836   1.000000
      8         -4.258618   1.000000
      9         -4.026515   1.000000
     10         -3.532031   1.000000
     11         -2.587337   1.000000
     12         -2.323337   1.000000
     13         -1.823364   1.000000
     14         -1.060956   1.000000
     15         -0.037028   1.000000
     16         -0.004871   1.000000
     17          0.182966   1.000000
     18          0.203081   1.000000
     19          0.598824   1.000000
     20          2.062244   0.000058
     21          2.130426   0.000000
     22          2.250952   0.000000
     23          5.482291   0.000000
     24          5.799112   0.000000
     25          5.884573   0.000000
     26          6.012344   0.000000
     27          6.863627   0.000000
     28          7.582569   0.000000
     29          7.913413   0.000000
     30          8.548693   0.000000
     31          8.798536   0.000000
     32          8.948302   0.000000
     33          9.043237   0.000000
     34         10.132879   0.000000
     35         11.198241   0.000000
     36         11.429990   0.000000
     37         11.758315   0.000000
     38         11.813912   0.000000
     39         11.968539   0.000000
     40         12.426997   0.000000
     41         12.889268   0.000000
     42         13.522801   0.000000
     43         13.540527   0.000000
     44         15.415032   0.000000
     45         15.629539   0.000000
     46         16.105184   0.000000
     47         16.383622   0.000000
     48         16.423937   0.000000
 
  0.1500000E+00  0.3571429E-01  0.0000000E+00  0.3174603E-02
      1        -12.693628   1.000000
      2        -11.657761   1.000000
      3         -8.638602   1.000000
      4         -8.411842   1.000000
      5         -5.994407   1.000000
      6         -5.464854   1.000000
      7         -4.782485   1.000000
      8         -4.001644   1.000000
      9         -3.777297   1.000000
     10         -3.193948   1.000000
     11         -2.657255   1.000000
     12         -2.303603   1.000000
     13         -1.900524   1.000000
     14         -1.370688   1.000000
     15          0.002512   1.000000
     16          0.009663   1.000000
     17          0.125165   1.000000
     18          0.226510   1.000000
     19          0.501804   1.000000
     20          1.976090   0.078371
     21          2.051437   0.000195
     22          2.131633   0.000000
     23          5.571450   0.000000
     24          5.796080   0.000000
     25          5.919843   0.000000
     26          6.360577   0.000000
     27          6.774621   0.000000
     28          7.217253   0.000000
     29          8.119029   0.000000
     30          8.688190   0.000000
     31          9.056363   0.000000
     32          9.134248   0.000000
     33          9.205584   0.000000
     34         10.246887   0.000000
     35         11.028952   0.000000
     36         11.212623   0.000000
     37         11.274129   0.000000
     38         11.721797   0.000000
     39         12.188731   0.000000
     40         12.518388   0.000000
     41         13.160933   0.000000
     42         13.178591   0.000000
     43         14.087324   0.000000
     44         14.900505   0.000000
     45         15.798658   0.000000
     46         15.883017   0.000000
     47         16.268774   0.000000
     48         16.575047   0.000000
 
  0.2500000E+00  0.3571429E-01  0.0000000E+00  0.3174603E-02
      1        -12.607405   1.000000
      2        -11.791641   1.000000
      3         -8.594870   1.000000
      4         -8.397165   1.000000
      5         -5.970281   1.000000
      6         -5.791241   1.000000
      7         -4.736163   1.000000
      8         -3.876541   1.000000
      9         -3.264083   1.000000
     10         -2.824446   1.000000
     11         -2.700362   1.000000
     12         -2.263693   1.000000
     13         -2.009498   1.000000
     14         -1.885125   1.000000
     15         -0.196276   1.000000
     16          0.044746   1.000000
     17          0.174650   1.000000
     18          0.191174   1.000000
     19          0.467126   1.000000
     20          1.825254   0.997815
     21          1.903261   0.740155
     22          1.915004   0.622353
     23          5.695005   0.000000
     24          5.749527   0.000000
     25          6.233078   0.000000
     26          6.642241   0.000000
     27          6.809940   0.000000
     28          6.965196   0.000000
     29          8.267733   0.000000
     30          8.842041   0.000000
     31          9.013087   0.000000
     32          9.579964   0.000000
     33          9.655458   0.000000
     34         10.351351   0.000000
     35         10.523074   0.000000
     36         10.671716   0.000000
     37         11.399931   0.000000
     38         11.859170   0.000000
     39         12.423024   0.000000
     40         12.608384   0.000000
     41         12.829315   0.000000
     42         12.945183   0.000000
     43         14.701207   0.000000
     44         14.969627   0.000000
     45         15.262738   0.000000
     46         16.040012   0.000000
     47         16.043608   0.000000
     48         16.348928   0.000000
 
  0.3500000E+00  0.3571429E-01  0.0000000E+00  0.3174603E-02
      1        -12.483132   1.000000
      2        -11.963136   1.000000
      3         -8.533610   1.000000
      4         -8.394797   1.000000
      5         -6.050765   1.000000
      6         -6.024995   1.000000
      7         -4.406542   1.000000
      8         -3.706552   1.000000
      9         -3.019767   1.000000
     10         -2.880355   1.000000
     11         -2.426630   1.000000
     12         -2.239285   1.000000
     13         -2.144588   1.000000
     14         -2.107404   1.000000
     15         -0.497600   1.000000
     16         -0.218016   1.000000
     17          0.201208   1.000000
     18          0.279469   1.000000
     19          0.640684   1.000000
     20          1.566482   1.000000
     21          1.705751   1.000000
     22          1.763445   0.999998
     23          5.730990   0.000000
     24          5.783853   0.000000
     25          6.532412   0.000000
     26          6.695520   0.000000
     27          6.758410   0.000000
     28          7.466775   0.000000
     29          8.385253   0.000000
     30          8.733687   0.000000
     31          8.827557   0.000000
     32          9.600487   0.000000
     33         10.062219   0.000000
     34         10.136712   0.000000
     35         10.438411   0.000000
     36         11.159141   0.000000
     37         11.435575   0.000000
     38         11.985816   0.000000
     39         12.224748   0.000000
     40         12.293118   0.000000
     41         12.543294   0.000000
     42         13.299297   0.000000
     43         14.746617   0.000000
     44         15.022175   0.000000
     45         15.314029   0.000000
     46         15.424139   0.000000
     47         15.645063   0.000000
     48         16.437915   0.000000
 
  0.4500000E+00  0.3571429E-01  0.0000000E+00  0.3174603E-02
      1        -12.327078   1.000000
      2        -12.148168   1.000000
      3         -8.468257   1.000000
      4         -8.417314   1.000000
      5         -6.139036   1.000000
      6         -6.136156   1.000000
      7         -3.892247   1.000000
      8         -3.498175   1.000000
      9         -3.291411   1.000000
     10         -3.258429   1.000000
     11         -2.344313   1.000000
     12         -2.218437   1.000000
     13         -1.955484   1.000000
     14         -1.892356   1.000000
     15         -0.725443   1.000000
     16         -0.585221   1.000000
     17          0.284823   1.000000
     18          0.318642   1.000000
     19          0.902055   1.000000
     20          1.221583   1.000000
     21          1.625326   1.000000
     22          1.650907   1.000000
     23          5.754888   0.000000
     24          5.793390   0.000000
     25          6.501743   0.000000
     26          6.563591   0.000000
     27          7.425050   0.000000
     28          8.131103   0.000000
     29          8.156534   0.000000
     30          8.496648   0.000000
     31          8.630487   0.000000
     32          8.851622   0.000000
     33         10.524819   0.000000
     34         10.528190   0.000000
     35         10.793978   0.000000
     36         11.248745   0.000000
     37         11.429024   0.000000
     38         11.608252   0.000000
     39         11.944374   0.000000
     40         12.499501   0.000000
     41         12.748044   0.000000
     42         13.288390   0.000000
     43         14.622991   0.000000
     44         14.778038   0.000000
     45         14.901076   0.000000
     46         14.968021   0.000000
     47         16.191709   0.000000
     48         16.521188   0.000000
 
  0.5000000E-01  0.1071429E+00  0.0000000E+00  0.3174603E-02
      1        -12.713880   1.000000
      2        -11.561383   1.000000
      3         -8.641590   1.000000
      4         -8.401664   1.000000
      5         -6.037052   1.000000
      6         -5.092196   1.000000
      7         -4.637980   1.000000
      8         -4.566105   1.000000
      9         -4.167235   1.000000
     10         -3.509933   1.000000
     11         -3.281592   1.000000
     12         -1.786272   1.000000
     13         -1.055724   1.000000
     14         -1.014022   1.000000
     15         -0.269608   1.000000
     16         -0.237976   1.000000
     17          0.193821   1.000000
     18          0.273388   1.000000
     19          0.676379   1.000000
     20          1.787854   0.999953
     21          1.872558   0.934761
     22          2.300115   0.000000
     23          5.623959   0.000000
     24          5.734133   0.000000
     25          5.788920   0.000000
     26          6.052275   0.000000
     27          7.150351   0.000000
     28          7.866531   0.000000
     29          8.081465   0.000000
     30          8.226117   0.000000
     31          8.805079   0.000000
     32          9.093498   0.000000
     33          9.145547   0.000000
     34         10.597486   0.000000
     35         11.340616   0.000000
     36         11.415920   0.000000
     37         11.677795   0.000000
     38         11.916304   0.000000
     39         12.079209   0.000000
     40         12.710410   0.000000
     41         12.892926   0.000000
     42         13.246166   0.000000
     43         13.252713   0.000000
     44         15.366296   0.000000
     45         15.413536   0.000000
     46         15.905512   0.000000
     47         15.917795   0.000000
     48         16.275771   0.000000
 
  0.1500000E+00  0.1071429E+00  0.0000000E+00  0.3174603E-02
      1        -12.669923   1.000000
      2        -11.636194   1.000000
      3         -8.619913   1.000000
      4         -8.390845   1.000000
      5         -5.966371   1.000000
      6         -5.435024   1.000000
      7         -4.762194   1.000000
      8         -4.486272   1.000000
      9         -3.740790   1.000000
     10         -3.364884   1.000000
     11         -3.156943   1.000000
     12         -1.765360   1.000000
     13         -1.369230   1.000000
     14         -1.131796   1.000000
     15         -0.233726   1.000000
     16         -0.164039   1.000000
     17          0.164398   1.000000
     18          0.244703   1.000000
     19          0.572025   1.000000
     20          1.707798   1.000000
     21          1.796145   0.999880
     22          2.169882   0.000000
     23          5.697176   0.000000
     24          5.833482   0.000000
     25          5.973942   0.000000
     26          6.160298   0.000000
     27          7.062628   0.000000
     28          7.537794   0.000000
     29          8.230029   0.000000
     30          8.389938   0.000000
     31          9.128365   0.000000
     32          9.166723   0.000000
     33          9.415854   0.000000
     34         10.527558   0.000000
     35         10.932944   0.000000
     36         11.143044   0.000000
     37         11.472243   0.000000
     38         11.898019   0.000000
     39         12.303034   0.000000
     40         12.771452   0.000000
     41         12.909894   0.000000
     42         13.184799   0.000000
     43         13.798077   0.000000
     44         14.984333   0.000000
     45         15.434132   0.000000
     46         15.810566   0.000000
     47         15.827796   0.000000
     48         16.457007   0.000000
 
  0.2500000E+00  0.1071429E+00  0.0000000E+00  0.3174603E-02
      1        -12.583478   1.000000
      2        -11.770505   1.000000
      3         -8.576641   1.000000
      4         -8.376486   1.000000
      5         -5.939438   1.000000
      6         -5.760462   1.000000
      7         -4.720124   1.000000
      8         -4.377516   1.000000
      9         -3.487462   1.000000
     10         -3.215016   1.000000
     11         -2.689277   1.000000
     12         -1.883075   1.000000
     13         -1.718711   1.000000
     14         -1.293239   1.000000
     15         -0.200997   1.000000
     16         -0.187327   1.000000
     17          0.083407   1.000000
     18          0.236453   1.000000
     19          0.490984   1.000000
     20          1.573799   1.000000
     21          1.662175   1.000000
     22          1.924809   0.513701
     23          5.890310   0.000000
     24          5.963904   0.000000
     25          6.055963   0.000000
     26          6.607971   0.000000
     27          6.934513   0.000000
     28          7.305520   0.000000
     29          8.444678   0.000000
     30          8.518604   0.000000
     31          9.108344   0.000000
     32          9.618723   0.000000
     33          9.883187   0.000000
     34         10.173344   0.000000
     35         10.404058   0.000000
     36         10.841693   0.000000
     37         11.547864   0.000000
     38         12.130883   0.000000
     39         12.344651   0.000000
     40         12.586756   0.000000
     41         12.982264   0.000000
     42         13.055694   0.000000
     43         14.369014   0.000000
     44         15.123110   0.000000
     45         15.203449   0.000000
     46         15.674901   0.000000
     47         15.763715   0.000000
     48         16.463979   0.000000
 
  0.3500000E+00  0.1071429E+00  0.0000000E+00  0.3174603E-02
      1        -12.458746   1.000000
      2        -11.940926   1.000000
      3         -8.514828   1.000000
      4         -8.373501   1.000000
      5         -6.018997   1.000000
      6         -5.992854   1.000000
      7         -4.392293   1.000000
      8         -4.227555   1.000000
      9         -3.657290   1.000000
     10         -2.833607   1.000000
     11         -2.344489   1.000000
     12         -2.203020   1.000000
     13         -1.647073   1.000000
     14         -1.455912   1.000000
     15         -0.461787   1.000000
     16         -0.281113   1.000000
     17          0.117179   1.000000
     18          0.146097   1.000000
     19          0.650696   1.000000
     20          1.433982   1.000000
     21          1.518391   1.000000
     22          1.602565   1.000000
     23          5.909002   0.000000
     24          6.042293   0.000000
     25          6.565011   0.000000
     26          6.840257   0.000000
     27          6.912514   0.000000
     28          7.410316   0.000000
     29          8.453776   0.000000
     30          8.624652   0.000000
     31          8.952681   0.000000
     32          9.423262   0.000000
     33         10.105429   0.000000
     34         10.112158   0.000000
     35         10.455141   0.000000
     36         11.236616   0.000000
     37         11.398805   0.000000
     38         11.868638   0.000000
     39         12.308175   0.000000
     40         12.581115   0.000000
     41         12.748398   0.000000
     42         13.502735   0.000000
     43         14.813404   0.000000
     44         14.824983   0.000000
     45         15.211451   0.000000
     46         15.342918   0.000000
     47         15.707628   0.000000
     48         16.440878   0.000000
 
  0.4500000E+00  0.1071429E+00  0.0000000E+00  0.3174603E-02
      1        -12.302587   1.000000
      2        -12.125346   1.000000
      3         -8.448676   1.000000
      4         -8.397354   1.000000
      5         -6.105069   1.000000
      6         -6.103426   1.000000
      7         -4.049748   1.000000
      8         -3.882457   1.000000
      9         -3.846786   1.000000
     10         -3.276966   1.000000
     11         -2.086430   1.000000
     12         -1.893808   1.000000
     13         -1.578271   1.000000
     14         -1.570844   1.000000
     15         -0.685629   1.000000
     16         -0.579780   1.000000
     17          0.150288   1.000000
     18          0.181313   1.000000
     19          0.912556   1.000000
     20          1.228639   1.000000
     21          1.380987   1.000000
     22          1.406338   1.000000
     23          5.956592   0.000000
     24          6.022729   0.000000
     25          6.822959   0.000000
     26          6.871181   0.000000
     27          7.234376   0.000000
     28          7.945878   0.000000
     29          7.988843   0.000000
     30          8.672046   0.000000
     31          8.713179   0.000000
     32          8.820830   0.000000
     33         10.351918   0.000000
     34         10.582294   0.000000
     35         10.819250   0.000000
     36         10.936348   0.000000
     37         11.572072   0.000000
     38         11.671857   0.000000
     39         12.023926   0.000000
     40         12.673732   0.000000
     41         13.061715   0.000000
     42         13.525287   0.000000
     43         14.582427   0.000000
     44         14.775698   0.000000
     45         14.885325   0.000000
     46         15.093915   0.000000
     47         16.202426   0.000000
     48         16.494650   0.000000
 
  0.5000000E-01  0.1785714E+00  0.0000000E+00  0.3174603E-02
      1        -12.669023   1.000000
      2        -11.522470   1.000000
      3         -8.607497   1.000000
      4         -8.358998   1.000000
      5         -5.986496   1.000000
      6         -5.122424   1.000000
      7         -5.002559   1.000000
      8         -4.596586   1.000000
      9         -4.150215   1.000000
     10         -3.910624   1.000000
     11         -3.455274   1.000000
     12         -1.183171   1.000000
     13         -1.048899   1.000000
     14         -0.614868   1.000000
     15         -0.514278   1.000000
     16         -0.151611   1.000000
     17          0.214172   1.000000
     18          0.326190   1.000000
     19          0.755385   1.000000
     20          1.407689   1.000000
     21          1.468600   1.000000
     22          2.336572   0.000000
     23          5.325968   0.000000
     24          5.493048   0.000000
     25          6.151200   0.000000
     26          6.245775   0.000000
     27          7.582745   0.000000
     28          7.630083   0.000000
     29          8.348192   0.000000
     30          8.739001   0.000000
     31          8.910416   0.000000
     32          9.238780   0.000000
     33          9.369988   0.000000
     34         10.933789   0.000000
     35         11.360883   0.000000
     36         11.624082   0.000000
     37         11.721947   0.000000
     38         12.121011   0.000000
     39         12.298487   0.000000
     40         12.789766   0.000000
     41         12.815715   0.000000
     42         13.038466   0.000000
     43         13.258697   0.000000
     44         14.700027   0.000000
     45         15.185495   0.000000
     46         15.372896   0.000000
     47         15.469592   0.000000
     48         16.016535   0.000000
 
  0.1500000E+00  0.1785714E+00  0.0000000E+00  0.3174603E-02
      1        -12.625213   1.000000
      2        -11.596456   1.000000
      3         -8.586046   1.000000
      4         -8.349728   1.000000
      5         -5.913073   1.000000
      6         -5.386509   1.000000
      7         -5.027240   1.000000
      8         -4.725898   1.000000
      9         -3.976659   1.000000
     10         -3.700575   1.000000
     11         -3.117823   1.000000
     12         -1.366129   1.000000
     13         -1.157460   1.000000
     14         -0.721930   1.000000
     15         -0.473955   1.000000
     16         -0.071703   1.000000
     17          0.193203   1.000000
     18          0.267457   1.000000
     19          0.638861   1.000000
     20          1.326373   1.000000
     21          1.398043   1.000000
     22          2.201684   0.000000
     23          5.405610   0.000000
     24          5.838575   0.000000
     25          6.182960   0.000000
     26          6.268501   0.000000
     27          7.496935   0.000000
     28          7.786790   0.000000
     29          8.076530   0.000000
     30          8.837443   0.000000
     31          9.254568   0.000000
     32          9.307781   0.000000
     33          9.656391   0.000000
     34         10.564680   0.000000
     35         10.822931   0.000000
     36         11.302600   0.000000
     37         11.742435   0.000000
     38         12.229481   0.000000
     39         12.470765   0.000000
     40         12.532895   0.000000
     41         13.193907   0.000000
     42         13.302531   0.000000
     43         13.490434   0.000000
     44         14.716266   0.000000
     45         14.846337   0.000000
     46         15.304991   0.000000
     47         15.534718   0.000000
     48         16.037494   0.000000
 
  0.2500000E+00  0.1785714E+00  0.0000000E+00  0.3174603E-02
      1        -12.539185   1.000000
      2        -11.729315   1.000000
      3         -8.541639   1.000000
      4         -8.336579   1.000000
      5         -5.880465   1.000000
      6         -5.704930   1.000000
      7         -4.935853   1.000000
      8         -4.688224   1.000000
      9         -4.099939   1.000000
     10         -3.164685   1.000000
     11         -2.644574   1.000000
     12         -1.866243   1.000000
     13         -1.115449   1.000000
     14         -0.861392   1.000000
     15         -0.420669   1.000000
     16         -0.064500   1.000000
     17          0.039167   1.000000
     18          0.284438   1.000000
     19          0.519406   1.000000
     20          1.193010   1.000000
     21          1.279399   1.000000
     22          1.946790   0.278479
     23          5.728004   0.000000
     24          6.134005   0.000000
     25          6.319446   0.000000
     26          6.402827   0.000000
     27          7.391226   0.000000
     28          7.886825   0.000000
     29          8.027195   0.000000
     30          8.974542   0.000000
     31          9.261021   0.000000
     32          9.734500   0.000000
     33          9.901792   0.000000
     34         10.152097   0.000000
     35         10.285531   0.000000
     36         11.075621   0.000000
     37         11.621720   0.000000
     38         12.134643   0.000000
     39         12.543796   0.000000
     40         12.837480   0.000000
     41         13.074497   0.000000
     42         13.480509   0.000000
     43         14.015435   0.000000
     44         14.631109   0.000000
     45         14.903174   0.000000
     46         15.332691   0.000000
     47         15.563713   0.000000
     48         16.247062   0.000000
 
  0.3500000E+00  0.1785714E+00  0.0000000E+00  0.3174603E-02
      1        -12.414863   1.000000
      2        -11.899797   1.000000
      3         -8.478776   1.000000
      4         -8.334971   1.000000
      5         -5.957885   1.000000
      6         -5.934289   1.000000
      7         -4.801257   1.000000
      8         -4.365111   1.000000
      9         -4.264449   1.000000
     10         -2.793181   1.000000
     11         -2.301044   1.000000
     12         -2.159702   1.000000
     13         -1.056413   1.000000
     14         -1.000238   1.000000
     15         -0.428003   1.000000
     16         -0.353224   1.000000
     17          0.082227   1.000000
     18          0.088532   1.000000
     19          0.667016   1.000000
     20          1.063545   1.000000
     21          1.147357   1.000000
     22          1.612303   1.000000
     23          6.144363   0.000000
     24          6.263760   0.000000
     25          6.437468   0.000000
     26          6.847979   0.000000
     27          7.331300   0.000000
     28          7.809044   0.000000
     29          8.099619   0.000000
     30          9.079219   0.000000
     31          9.139796   0.000000
     32          9.202643   0.000000
     33          9.921707   0.000000
     34         10.195433   0.000000
     35         10.712937   0.000000
     36         11.107106   0.000000
     37         11.334373   0.000000
     38         11.979146   0.000000
     39         12.374238   0.000000
     40         13.028208   0.000000
     41         13.066487   0.000000
     42         13.832421   0.000000
     43         14.419310   0.000000
     44         14.448119   0.000000
     45         15.069383   0.000000
     46         15.185106   0.000000
     47         15.665428   0.000000
     48         16.419049   0.000000
 
  0.4500000E+00  0.1785714E+00  0.0000000E+00  0.3174603E-02
      1        -12.259432   1.000000
      2        -12.083073   1.000000
      3         -8.411945   1.000000
      4         -8.359496   1.000000
      5         -6.046435   1.000000
      6         -6.041450   1.000000
      7         -4.633955   1.000000
      8         -4.448844   1.000000
      9         -3.850999   1.000000
     10         -3.252287   1.000000
     11         -2.018807   1.000000
     12         -1.854444   1.000000
     13         -1.075041   1.000000
     14         -1.014026   1.000000
     15         -0.607238   1.000000
     16         -0.603853   1.000000
     17          0.035771   1.000000
     18          0.078914   1.000000
     19          0.929582   1.000000
     20          1.002937   1.000000
     21          1.042750   1.000000
     22          1.260934   1.000000
     23          6.231595   0.000000
     24          6.350945   0.000000
     25          6.921433   0.000000
     26          7.256460   0.000000
     27          7.309455   0.000000
     28          7.665228   0.000000
     29          7.963725   0.000000
     30          8.480401   0.000000
     31          9.130006   0.000000
     32          9.152056   0.000000
     33         10.038591   0.000000
     34         10.514001   0.000000
     35         10.718796   0.000000
     36         10.994162   0.000000
     37         11.752954   0.000000
     38         11.765021   0.000000
     39         12.147281   0.000000
     40         12.931631   0.000000
     41         13.462510   0.000000
     42         13.809960   0.000000
     43         14.262945   0.000000
     44         14.424199   0.000000
     45         15.052875   0.000000
     46         15.185978   0.000000
     47         16.053722   0.000000
     48         16.361516   0.000000
 
  0.5000000E-01  0.2500000E+00  0.0000000E+00  0.3174603E-02
      1        -12.610957   1.000000
      2        -11.470327   1.000000
      3         -8.563819   1.000000
      4         -8.304230   1.000000
      5         -5.922964   1.000000
      6         -5.606053   1.000000
      7         -4.931734   1.000000
      8         -4.539940   1.000000
      9         -4.433117   1.000000
     10         -4.110764   1.000000
     11         -3.393508   1.000000
     12         -1.189127   1.000000
     13         -1.041837   1.000000
     14         -0.969300   1.000000
     15         -0.163250   1.000000
     16          0.241411   1.000000
     17          0.371278   1.000000
     18          0.623344   1.000000
     19          0.817536   1.000000
     20          1.022716   1.000000
     21          1.029663   1.000000
     22          2.371899   0.000000
     23          4.979269   0.000000
     24          5.198214   0.000000
     25          6.408270   0.000000
     26          6.613236   0.000000
     27          7.268004   0.000000
     28          8.009684   0.000000
     29          8.703827   0.000000
     30          9.093403   0.000000
     31          9.473651   0.000000
     32          9.621604   0.000000
     33          9.661382   0.000000
     34         10.795903   0.000000
     35         11.327189   0.000000
     36         12.005963   0.000000
     37         12.040977   0.000000
     38         12.335605   0.000000
     39         12.470679   0.000000
     40         12.482182   0.000000
     41         12.601577   0.000000
     42         13.021499   0.000000
     43         13.811449   0.000000
     44         13.916810   0.000000
     45         14.433982   0.000000
     46         15.141647   0.000000
     47         15.441342   0.000000
     48         15.902344   0.000000
 
  0.1500000E+00  0.2500000E+00  0.0000000E+00  0.3174603E-02
      1        -12.567286   1.000000
      2        -11.543896   1.000000
      3         -8.541461   1.000000
      4         -8.294887   1.000000
      5         -5.843903   1.000000
      6         -5.571716   1.000000
      7         -5.267504   1.000000
      8         -4.673474   1.000000