       N       E                     dE             d eps       ncg     rms          rms(c)
DAV:   1     0.145544775516E+03    0.14554E+03   -0.26256E+04120960   0.127E+03
DAV:   2    -0.884859258826E+02   -0.23403E+03   -0.21665E+03160728   0.206E+02
DAV:   3    -0.975921318658E+02   -0.91062E+01   -0.90256E+01180720   0.359E+01
DAV:   4    -0.976488150865E+02   -0.56683E-01   -0.56680E-01134496   0.325E+00
DAV:   5    -0.976493917482E+02   -0.57666E-03   -0.57665E-03180912   0.312E-01    0.123E+01
