       N       E                     dE             d eps       ncg     rms          rms(c)
DAV:   1     0.145544775516E+03    0.14554E+03   -0.26256E+04120960   0.127E+03
