 running   24 mpi-ranks, with    1 threads/rank, on    1 nodes
 distrk:  each k-point on   24 cores,    1 groups
 distr:  one band on    1 cores,   24 groups
 vasp.6.4.3 19Mar24 (build May 31 2024 16:31:43) complex                        
  
 POSCAR found type information on POSCAR B 
 POSCAR found :  1 types and      14 ions
 Reading from existing POTCAR
 scaLAPACK will be used
 Reading from existing POTCAR
 LDA part: xc-table for (Slater+PW92), standard interpolation
 POSCAR, INCAR and KPOINTS ok, starting setup
 FFT: planning ... GRIDC
 FFT: planning ... GRID_SOFT
 FFT: planning ... GRID
 WAVECAR not read
 entering main loop
       N       E                     dE             d eps       ncg     rms          rms(c)
DAV:   1     0.145544775516E+03    0.14554E+03   -0.26256E+04120960   0.127E+03
DAV:   2    -0.884859258826E+02   -0.23403E+03   -0.21665E+03160728   0.206E+02
DAV:   3    -0.975921318658E+02   -0.91062E+01   -0.90256E+01180720   0.359E+01
DAV:   4    -0.976488150865E+02   -0.56683E-01   -0.56680E-01134496   0.325E+00
DAV:   5    -0.976493917482E+02   -0.57666E-03   -0.57665E-03180912   0.312E-01    0.123E+01
DAV:   6    -0.922349144025E+02    0.54145E+01   -0.39474E+00174912   0.658E+00    0.679E+00
DAV:   7    -0.905839186041E+02    0.16510E+01   -0.32091E+00180480   0.586E+00    0.172E+00
DAV:   8    -0.905950089584E+02   -0.11090E-01   -0.22984E-01133080   0.166E+00    0.751E-01
DAV:   9    -0.906096808329E+02   -0.14672E-01   -0.17582E-02170376   0.460E-01    0.206E-01
DAV:  10    -0.906140591163E+02   -0.43783E-02   -0.26247E-03134112   0.182E-01    0.665E-02
