 running   24 mpi-ranks, with    1 threads/rank, on    1 nodes
 distrk:  each k-point on   24 cores,    1 groups
 distr:  one band on    1 cores,   24 groups
 vasp.6.4.3 19Mar24 (build May 31 2024 16:31:43) complex                        
  
 POSCAR found type information on POSCAR B 
 POSCAR found :  1 types and      14 ions
 Reading from existing POTCAR
 scaLAPACK will be used
 Reading from existing POTCAR
 LDA part: xc-table for (Slater+PW92), standard interpolation
 POSCAR, INCAR and KPOINTS ok, starting setup
 FFT: planning ... GRIDC
 FFT: planning ... GRID_SOFT
 FFT: planning ... GRID
 WAVECAR not read
 entering main loop
       N       E                     dE             d eps       ncg     rms          rms(c)
DAV:   1     0.934867766937E+02    0.93487E+02   -0.21332E+04 16800   0.945E+02
DAV:   2    -0.911357815472E+02   -0.18462E+03   -0.17262E+03 23088   0.177E+02
DAV:   3    -0.976129567452E+02   -0.64772E+01   -0.64383E+01 24912   0.293E+01
DAV:   4    -0.976516060174E+02   -0.38649E-01   -0.38647E-01 19800   0.262E+00
DAV:   5    -0.976520288409E+02   -0.42282E-03   -0.42281E-03 24984   0.261E-01    0.123E+01
DAV:   6    -0.922361952730E+02    0.54158E+01   -0.39482E+00 24264   0.659E+00    0.680E+00
DAV:   7    -0.905846197006E+02    0.16516E+01   -0.32200E+00 25152   0.586E+00    0.171E+00
DAV:   8    -0.905970388647E+02   -0.12419E-01   -0.23517E-01 18552   0.168E+00    0.705E-01
DAV:   9    -0.906112086172E+02   -0.14170E-01   -0.16938E-02 23376   0.440E-01    0.198E-01
DAV:  10    -0.906152618140E+02   -0.40532E-02   -0.21019E-03 19152   0.162E-01    0.610E-02
DAV:  11    -0.906163325673E+02   -0.10708E-02   -0.63056E-04 21744   0.877E-02    0.321E-02
DAV:  12    -0.906164483575E+02   -0.11579E-03   -0.93066E-05 20856   0.375E-02    0.429E-03
DAV:  13    -0.906164532209E+02   -0.48634E-05   -0.41159E-06 23328   0.893E-03    0.182E-03
DAV:  14    -0.906164539069E+02   -0.68603E-06   -0.28796E-07 20736   0.235E-03
   1 F= -.90616454E+02 E0= -.90614847E+02  d E =-.321338E-02
