   14   14    1    1
  0.1021960E+02  0.5697000E-09  0.4047900E-09  0.6204200E-09  0.5000000E-15
  1.000000000000000E-004
  CAR 
 Kpoints                                 
     42   1260     48
 
  0.0000000E+00  0.0000000E+00  0.0000000E+00  0.1146657E-03
      1        -12.733312   1.000000
      2        -11.576160   1.000000
      3         -8.661883   1.000000
      4         -8.424579   1.000000
      5         -6.076999   1.000000
      6         -5.058941   1.000000
      7         -4.637887   1.000000
      8         -4.349100   1.000000
      9         -3.972954   1.000000
     10         -3.598088   1.000000
     11         -2.421448   1.000000
     12         -2.241985   1.000000
     13         -2.182619   1.000000
     14         -1.051899   1.000000
     15         -0.036439   1.000000
     16         -0.002559   1.000000
     17          0.150355   1.000000
     18          0.173808   1.000000
     19          0.565682   1.000000
     20          2.080722   0.000000
     21          2.126931   0.000000
     22          2.215716   0.000000
     23          5.412658   0.000000
     24          5.802947   0.000000
     25          5.818341   0.000000
     26          5.911679   0.000000
     27          6.786904   0.000000
     28          7.674008   0.000000
     29          7.702406   0.000000
     30          8.635271   0.000000
     31          8.753819   0.000000
     32          8.854015   0.000000
     33          9.041953   0.000000
     34         10.030240   0.000000
     35         11.145011   0.000000
     36         11.400971   0.000000
     37         11.770850   0.000000
     38         11.803393   0.000000
     39         11.900284   0.000000
     40         12.355481   0.000000
     41         12.805717   0.000000
     42         13.396176   0.000000
     43         13.575148   0.000000
     44         15.555828   0.000000
     45         15.568715   0.000000
     46         15.943174   0.000000
     47         16.360051   0.000000
     48         16.600600   0.000000
 
  0.5263158E-01  0.0000000E+00  0.0000000E+00  0.2293315E-03
      1        -12.727213   1.000000
      2        -11.586802   1.000000
      3         -8.659061   1.000000
      4         -8.422763   1.000000
      5         -6.064152   1.000000
      6         -5.140929   1.000000
      7         -4.669709   1.000000
      8         -4.252320   1.000000
      9         -3.964402   1.000000
     10         -3.538898   1.000000
     11         -2.418822   1.000000
     12         -2.243696   1.000000
     13         -2.202584   1.000000
     14         -1.098025   1.000000
     15         -0.030328   1.000000
     16          0.007639   1.000000
     17          0.155050   1.000000
     18          0.157501   1.000000
     19          0.551629   1.000000
     20          2.067769   0.000000
     21          2.115482   0.000000
     22          2.199256   0.000000
     23          5.426547   0.000000
     24          5.794995   0.000000
     25          5.798234   0.000000
     26          5.992995   0.000000
     27          6.773638   0.000000
     28          7.498328   0.000000
     29          7.848077   0.000000
     30          8.655577   0.000000
     31          8.809544   0.000000
     32          8.890904   0.000000
     33          9.044882   0.000000
     34         10.048569   0.000000
     35         11.155326   0.000000
     36         11.341182   0.000000
     37         11.666215   0.000000
     38         11.767784   0.000000
     39         11.933100   0.000000
     40         12.367676   0.000000
     41         12.875425   0.000000
     42         13.505083   0.000000
     43         13.517844   0.000000
     44         15.364192   0.000000
     45         15.603377   0.000000
     46         16.081338   0.000000
     47         16.346509   0.000000
     48         16.375929   0.000000
 
  0.1052632E+00  0.0000000E+00  0.0000000E+00  0.2293315E-03
      1        -12.708963   1.000000
      2        -11.618074   1.000000
      3         -8.650418   1.000000
      4         -8.417645   1.000000
      5         -6.030777   1.000000
      6         -5.313270   1.000000
      7         -4.738583   1.000000
      8         -4.036006   1.000000
      9         -3.938815   1.000000
     10         -3.384103   1.000000
     11         -2.410854   1.000000
     12         -2.260429   1.000000
     13         -2.248773   1.000000
     14         -1.230696   1.000000
     15         -0.012226   1.000000
     16          0.036643   1.000000
     17          0.099632   1.000000
     18          0.176903   1.000000
     19          0.510095   1.000000
     20          2.030130   0.000010
     21          2.082133   0.000000
     22          2.149746   0.000000
     23          5.465404   0.000000
     24          5.773170   0.000000
     25          5.815509   0.000000
     26          6.157330   0.000000
     27          6.736017   0.000000
     28          7.301033   0.000000
     29          7.970433   0.000000
     30          8.713495   0.000000
     31          8.958764   0.000000
     32          8.996178   0.000000
     33          9.052000   0.000000
     34         10.104856   0.000000
     35         11.170306   0.000000
     36         11.186689   0.000000
     37         11.411690   0.000000
     38         11.704864   0.000000
     39         12.028273   0.000000
     40         12.403809   0.000000
     41         13.025706   0.000000
     42         13.358652   0.000000
     43         13.772899   0.000000
     44         15.060360   0.000000
     45         15.696867   0.000000
     46         16.064931   0.000000
     47         16.247424   0.000000
     48         16.422007   0.000000
 
  0.1578947E+00  0.0000000E+00  0.0000000E+00  0.2293315E-03
      1        -12.678776   1.000000
      2        -11.668162   1.000000
      3         -8.635605   1.000000
      4         -8.410190   1.000000
      5         -5.992341   1.000000
      6         -5.502035   1.000000
      7         -4.794524   1.000000
      8         -3.896411   1.000000
      9         -3.775572   1.000000
     10         -3.172016   1.000000
     11         -2.397235   1.000000
     12         -2.350674   1.000000
     13         -2.257074   1.000000
     14         -1.435237   1.000000
     15          0.010011   1.000000
     16          0.017131   1.000000
     17          0.080307   1.000000
     18          0.197223   1.000000
     19          0.449797   1.000000
     20          1.971470   0.004489
     21          2.029697   0.000010
     22          2.067263   0.000000
     23          5.521702   0.000000
     24          5.743016   0.000000
     25          5.898211   0.000000
     26          6.370845   0.000000
     27          6.679877   0.000000
     28          7.114997   0.000000
     29          8.067399   0.000000
     30          8.798673   0.000000
     31          9.032275   0.000000
     32          9.163585   0.000000
     33          9.181314   0.000000
     34         10.205043   0.000000
     35         10.910280   0.000000
     36         11.094192   0.000000
     37         11.238886   0.000000
     38         11.679504   0.000000
     39         12.168976   0.000000
     40         12.470188   0.000000
     41         13.124686   0.000000
     42         13.135269   0.000000
     43         14.116047   0.000000
     44         14.820943   0.000000
     45         15.759248   0.000000
     46         15.828114   0.000000
     47         16.322347   0.000000
     48         16.494235   0.000000
 
  0.2105263E+00  0.0000000E+00  0.0000000E+00  0.2293315E-03
      1        -12.637020   1.000000
      2        -11.734327   1.000000
      3         -8.614487   1.000000
      4         -8.402008   1.000000
      5         -5.971105   1.000000
      6         -5.680417   1.000000
      7         -4.794604   1.000000
      8         -3.837571   1.000000
      9         -3.501407   1.000000
     10         -2.929620   1.000000
     11         -2.466090   1.000000
     12         -2.377468   1.000000
     13         -2.268232   1.000000
     14         -1.692392   1.000000
     15         -0.109866   1.000000
     16          0.056420   1.000000
     17          0.132999   1.000000
     18          0.173514   1.000000
     19          0.414990   1.000000
     20          1.897803   0.298307
     21          1.953219   0.018010
     22          1.962518   0.009145
     23          5.585467   0.000000
     24          5.712100   0.000000
     25          6.047492   0.000000
     26          6.613445   0.000000
     27          6.623312   0.000000
     28          6.951098   0.000000
     29          8.150591   0.000000
     30          8.888438   0.000000
     31          8.997110   0.000000
     32          9.393355   0.000000
     33          9.408615   0.000000
     34         10.361800   0.000000
     35         10.585373   0.000000
     36         10.775064   0.000000
     37         11.306098   0.000000
     38         11.724041   0.000000
     39         12.304431   0.000000
     40         12.602188   0.000000
     41         12.841368   0.000000
     42         13.081264   0.000000
     43         14.489186   0.000000
     44         14.748248   0.000000
     45         15.443116   0.000000
     46         15.979386   0.000000
     47         16.217817   0.000000
     48         16.492267   0.000000
 
  0.2631579E+00  0.0000000E+00  0.0000000E+00  0.2293315E-03
      1        -12.584215   1.000000
      2        -11.813240   1.000000
      3         -8.587380   1.000000
      4         -8.395180   1.000000
      5         -5.982752   1.000000
      6         -5.837327   1.000000
      7         -4.714133   1.000000
      8         -3.762821   1.000000
      9         -3.233124   1.000000
     10         -2.675075   1.000000
     11         -2.599124   1.000000
     12         -2.352657   1.000000
     13         -2.280922   1.000000
     14         -1.977681   1.000000
     15         -0.254266   1.000000
     16          0.059291   1.000000
     17          0.103589   1.000000
     18          0.188533   1.000000
     19          0.455206   1.000000
     20          1.811517   0.972013
     21          1.817105   0.960217
     22          1.886097   0.421449
     23          5.646571   0.000000
     24          5.687838   0.000000
     25          6.259155   0.000000
     26          6.546293   0.000000
     27          6.812748   0.000000
     28          6.907474   0.000000
     29          8.225127   0.000000
     30          8.931113   0.000000
     31          8.936716   0.000000
     32          9.634602   0.000000
     33          9.669283   0.000000
     34         10.214803   0.000000
     35         10.518741   0.000000
     36         10.590295   0.000000
     37         11.370869   0.000000
     38         11.842450   0.000000
     39         12.391552   0.000000
     40         12.527469   0.000000
     41         12.825144   0.000000
     42         12.843325   0.000000
     43         14.833310   0.000000
     44         14.870089   0.000000
     45         15.130380   0.000000
     46         15.968330   0.000000
     47         16.097007   0.000000
     48         16.137892   0.000000
 
  0.3157895E+00  0.0000000E+00  0.0000000E+00  0.2293315E-03
      1        -12.521069   1.000000
      2        -11.901348   1.000000
      3         -8.555399   1.000000
      4         -8.392160   1.000000
      5         -6.023511   1.000000
      6         -5.966511   1.000000
      7         -4.553783   1.000000
      8         -3.672901   1.000000
      9         -3.002137   1.000000
     10         -2.742902   1.000000
     11         -2.433813   1.000000
     12         -2.371403   1.000000
     13         -2.284066   1.000000
     14         -2.206719   1.000000
     15         -0.414371   1.000000
     16         -0.111404   1.000000
     17          0.155622   1.000000
     18          0.240406   1.000000
     19          0.543056   1.000000
     20          1.648545   1.000000
     21          1.738759   0.999964
     22          1.806874   0.979453
     23          5.675320   0.000000
     24          5.695908   0.000000
     25          6.488344   0.000000
     26          6.526254   0.000000
     27          6.698880   0.000000
     28          7.217569   0.000000
     29          8.292727   0.000000
     30          8.842999   0.000000
     31          8.871426   0.000000
     32          9.820520   0.000000
     33          9.885298   0.000000
     34          9.937921   0.000000
     35         10.399209   0.000000
     36         10.898496   0.000000
     37         11.405068   0.000000
     38         12.023312   0.000000
     39         12.196250   0.000000
     40         12.457060   0.000000
     41         12.504324   0.000000
     42         13.083709   0.000000
     43         14.841842   0.000000
     44         14.955677   0.000000
     45         15.245256   0.000000
     46         15.604238   0.000000
     47         15.660392   0.000000
     48         16.290090   0.000000
 
  0.3684211E+00  0.0000000E+00  0.0000000E+00  0.2293315E-03
      1        -12.448481   1.000000
      2        -11.995139   1.000000
      3         -8.520482   1.000000
      4         -8.395257   1.000000
      5         -6.076294   1.000000
      6         -6.063882   1.000000
      7         -4.329983   1.000000
      8         -3.568764   1.000000
      9         -2.919502   1.000000
     10         -2.891561   1.000000
     11         -2.525005   1.000000
     12         -2.348541   1.000000
     13         -2.176677   1.000000
     14         -2.153578   1.000000
     15         -0.574336   1.000000
     16         -0.307245   1.000000
     17          0.208293   1.000000
     18          0.281905   1.000000
     19          0.658050   1.000000
     20          1.472513   1.000000
     21          1.672771   1.000000
     22          1.732089   0.999984
     23          5.676264   0.000000
     24          5.726617   0.000000
     25          6.448879   0.000000
     26          6.606835   0.000000
     27          6.840182   0.000000
     28          7.548985   0.000000
     29          8.355800   0.000000
     30          8.654422   0.000000
     31          8.745612   0.000000
     32          9.420774   0.000000
     33         10.144417   0.000000
     34         10.193549   0.000000
     35         10.452339   0.000000
     36         11.276929   0.000000
     37         11.387876   0.000000
     38         11.857989   0.000000
     39         12.131350   0.000000
     40         12.254609   0.000000
     41         12.511087   0.000000
     42         13.289922   0.000000
     43         14.619280   0.000000
     44         15.014433   0.000000
     45         15.138449   0.000000
     46         15.335338   0.000000
     47         15.603710   0.000000
     48         16.413760   0.000000
 
  0.4210526E+00  0.0000000E+00  0.0000000E+00  0.2293315E-03
      1        -12.367622   1.000000
      2        -12.091366   1.000000
      3         -8.485230   1.000000
      4         -8.406224   1.000000
      5         -6.127155   1.000000
      6         -6.123827   1.000000
      7         -4.060737   1.000000
      8         -3.451658   1.000000
      9         -3.133189   1.000000
     10         -3.040285   1.000000
     11         -2.503123   1.000000
     12         -2.367112   1.000000
     13         -2.057632   1.000000
     14         -1.974341   1.000000
     15         -0.702723   1.000000
     16         -0.504521   1.000000
     17          0.255987   1.000000
     18          0.306639   1.000000
     19          0.793890   1.000000
     20          1.292019   1.000000
     21          1.628520   1.000000
     22          1.669629   1.000000
     23          5.688909   0.000000
     24          5.735935   0.000000
     25          6.434212   0.000000
     26          6.534160   0.000000
     27          7.191053   0.000000
     28          7.898048   0.000000
     29          8.328906   0.000000
     30          8.418596   0.000000
     31          8.649959   0.000000
     32          9.025257   0.000000
     33         10.396753   0.000000
     34         10.417993   0.000000
     35         10.636199   0.000000
     36         11.332977   0.000000
     37         11.521707   0.000000
     38         11.683871   0.000000
     39         11.784993   0.000000
     40         12.510790   0.000000
     41         12.515092   0.000000
     42         13.312712   0.000000
     43         14.541382   0.000000
     44         14.817702   0.000000
     45         14.973460   0.000000
     46         15.028632   0.000000
     47         15.932845   0.000000
     48         16.469177   0.000000
 
  0.4736842E+00  0.0000000E+00  0.0000000E+00  0.2293315E-03
      1        -12.279922   1.000000
      2        -12.187135   1.000000
      3         -8.452668   1.000000
      4         -8.425640   1.000000
      5         -6.156182   1.000000
      6         -6.153324   1.000000
      7         -3.760894   1.000000
      8         -3.444337   1.000000
      9         -3.323139   1.000000
     10         -3.185182   1.000000
     11         -2.443455   1.000000
     12         -2.399245   1.000000
     13         -1.934297   1.000000
     14         -1.889804   1.000000
     15         -0.746064   1.000000
     16         -0.668673   1.000000
     17          0.292071   1.000000
     18          0.310208   1.000000
     19          0.947298   1.000000
     20          1.114871   1.000000
     21          1.612797   1.000000
     22          1.627592   1.000000
     23          5.708389   0.000000
     24          5.727148   0.000000
     25          6.445530   0.000000
     26          6.479951   0.000000
     27          7.567304   0.000000
     28          7.954012   0.000000
     29          8.261887   0.000000
     30          8.486176   0.000000
     31          8.562774   0.000000
     32          8.638249   0.000000
     33         10.575308   0.000000
     34         10.578122   0.000000
     35         10.895504   0.000000
     36         11.196872   0.000000
     37         11.318252   0.000000
     38         11.471135   0.000000
     39         12.094198   0.000000
     40         12.382971   0.000000
     41         12.803923   0.000000
     42         13.102857   0.000000
     43         14.622697   0.000000
     44         14.738882   0.000000
     45         14.780837   0.000000
     46         14.853131   0.000000
     47         16.212443   0.000000
     48         16.405300   0.000000
 
  0.0000000E+00  0.3703704E-01  0.0000000E+00  0.2293315E-03
      1        -12.730000   1.000000
      2        -11.573181   1.000000
      3         -8.659285   1.000000
      4         -8.421371   1.000000
      5         -6.073330   1.000000
      6         -5.053809   1.000000
      7         -4.634833   1.000000
      8         -4.358585   1.000000
      9         -4.048922   1.000000
     10         -3.594643   1.000000
     11         -2.600408   1.000000
     12         -2.323457   1.000000
     13         -1.809182   1.000000
     14         -1.051261   1.000000
     15         -0.076716   1.000000
     16         -0.050099   1.000000
     17          0.152794   1.000000
     18          0.196418   1.000000
     19          0.581811   1.000000
     20          2.028217   0.000012
     21          2.089662   0.000000
     22          2.236501   0.000000
     23          5.448574   0.000000
     24          5.760706   0.000000
     25          5.862094   0.000000
     26          5.878663   0.000000
     27          6.829639   0.000000
     28          7.729596   0.000000
     29          7.730515   0.000000
     30          8.510137   0.000000
     31          8.753587   0.000000
     32          8.921865   0.000000
     33          9.050172   0.000000
     34         10.116122   0.000000
     35         11.178685   0.000000
     36         11.389343   0.000000
     37         11.759665   0.000000
     38         11.818756   0.000000
     39         11.914431   0.000000
     40         12.395411   0.000000
     41         12.807270   0.000000
     42         13.350408   0.000000
     43         13.527833   0.000000
     44         15.539819   0.000000
     45         15.550606   0.000000
     46         15.954622   0.000000
     47         16.333537   0.000000
     48         16.485424   0.000000
 
  0.5263158E-01  0.3703704E-01  0.0000000E+00  0.4586630E-03
      1        -12.723893   1.000000
      2        -11.583816   1.000000
      3         -8.656451   1.000000
      4         -8.419564   1.000000
      5         -6.060444   1.000000
      6         -5.136203   1.000000
      7         -4.666689   1.000000
      8         -4.266169   1.000000
      9         -4.035743   1.000000
     10         -3.535518   1.000000
     11         -2.609913   1.000000
     12         -2.320697   1.000000
     13         -1.821822   1.000000
     14         -1.097382   1.000000
     15         -0.070772   1.000000
     16         -0.041345   1.000000
     17          0.160149   1.000000
     18          0.179564   1.000000
     19          0.567722   1.000000
     20          2.015585   0.000057
     21          2.078238   0.000000
     22          2.219623   0.000000
     23          5.462722   0.000000
     24          5.748143   0.000000
     25          5.840601   0.000000
     26          5.965700   0.000000
     27          6.816426   0.000000
     28          7.541977   0.000000
     29          7.888043   0.000000
     30          8.531503   0.000000
     31          8.809999   0.000000
     32          8.958203   0.000000
     33          9.054369   0.000000
     34         10.130695   0.000000
     35         11.188627   0.000000
     36         11.329614   0.000000
     37         11.656005   0.000000
     38         11.781826   0.000000
     39         11.947326   0.000000
     40         12.407437   0.000000
     41         12.877208   0.000000
     42         13.459970   0.000000
     43         13.470799   0.000000
     44         15.369633   0.000000
     45         15.573167   0.000000
     46         16.069087   0.000000
     47         16.317944   0.000000
     48         16.357976   0.000000
 
  0.1052632E+00  0.3703704E-01  0.0000000E+00  0.4586630E-03
      1        -12.705648   1.000000
      2        -11.615081   1.000000
      3         -8.647799   1.000000
      4         -8.414463   1.000000
      5         -6.026969   1.000000
      6         -5.308924   1.000000
      7         -4.735667   1.000000
      8         -4.092760   1.000000
      9         -3.967301   1.000000
     10         -3.380956   1.000000
     11         -2.638719   1.000000
     12         -2.312367   1.000000
     13         -1.857103   1.000000
     14         -1.230018   1.000000
     15         -0.053476   1.000000
     16         -0.020675   1.000000
     17          0.133678   1.000000
     18          0.180452   1.000000
     19          0.526021   1.000000
     20          1.978735   0.002413
     21          2.044928   0.000001
     22          2.169018   0.000000
     23          5.502263   0.000000
     24          5.755325   0.000000
     25          5.830172   0.000000
     26          6.127796   0.000000
     27          6.778906   0.000000
     28          7.346492   0.000000
     29          8.008900   0.000000
     30          8.592072   0.000000
     31          8.960784   0.000000
     32          9.059060   0.000000
     33          9.068730   0.000000
     34         10.175356   0.000000
     35         11.158902   0.000000
     36         11.218900   0.000000
     37         11.400023   0.000000
     38         11.722060   0.000000
     39         12.042701   0.000000
     40         12.443097   0.000000
     41         13.028322   0.000000
     42         13.312334   0.000000
     43         13.726356   0.000000
     44         15.074906   0.000000
     45         15.661865   0.000000
     46         16.057721   0.000000
     47         16.186651   0.000000
     48         16.432952   0.000000
 
  0.1578947E+00  0.3703704E-01  0.0000000E+00  0.4586630E-03
      1        -12.675473   1.000000
      2        -11.665158   1.000000
      3         -8.632983   1.000000
      4         -8.407047   1.000000
      5         -5.988366   1.000000
      6         -5.497820   1.000000
      7         -4.791809   1.000000
      8         -4.006627   1.000000
      9         -3.751059   1.000000
     10         -3.169703   1.000000
     11         -2.687146   1.000000
     12         -2.298273   1.000000
     13         -1.908254   1.000000
     14         -1.434471   1.000000
     15         -0.026652   1.000000
     16         -0.025474   1.000000
     17          0.094039   1.000000
     18          0.204330   1.000000
     19          0.464565   1.000000
     20          1.920832   0.118871
     21          1.992554   0.000665
     22          2.085311   0.000000
     23          5.559452   0.000000
     24          5.757449   0.000000
     25          5.881381   0.000000
     26          6.338382   0.000000
     27          6.722919   0.000000
     28          7.164199   0.000000
     29          8.104263   0.000000
     30          8.680254   0.000000
     31          9.060314   0.000000
     32          9.166979   0.000000
     33          9.239042   0.000000
     34         10.255265   0.000000
     35         10.899395   0.000000
     36         11.082241   0.000000
     37         11.269250   0.000000
     38         11.703394   0.000000
     39         12.184116   0.000000
     40         12.508140   0.000000
     41         13.079585   0.000000
     42         13.139247   0.000000
     43         14.060155   0.000000
     44         14.848377   0.000000
     45         15.737425   0.000000
     46         15.815229   0.000000
     47         16.221302   0.000000
     48         16.528926   0.000000
 
  0.2105263E+00  0.3703704E-01  0.0000000E+00  0.4586630E-03
      1        -12.633727   1.000000
      2        -11.731298   1.000000
      3         -8.611840   1.000000
      4         -8.398906   1.000000
      5         -5.966917   1.000000
      6         -5.676215   1.000000
      7         -4.792135   1.000000
      8         -3.942981   1.000000
      9         -3.482129   1.000000
     10         -2.933181   1.000000
     11         -2.750824   1.000000
     12         -2.278229   1.000000
     13         -1.967128   1.000000
     14         -1.691439   1.000000
     15         -0.116655   1.000000
     16          0.004051   1.000000
     17          0.119530   1.000000
     18          0.194917   1.000000
     19          0.423957   1.000000
     20          1.846847   0.819107
     21          1.925470   0.094789
     22          1.971045   0.004649
     23          5.624033   0.000000
     24          5.734220   0.000000
     25          6.023633   0.000000
     26          6.583366   0.000000
     27          6.656731   0.000000
     28          7.009275   0.000000
     29          8.186201   0.000000
     30          8.771730   0.000000
     31          9.037472   0.000000
     32          9.397643   0.000000
     33          9.464065   0.000000
     34         10.373700   0.000000
     35         10.582329   0.000000
     36         10.770016   0.000000
     37         11.333549   0.000000
     38         11.756157   0.000000
     39         12.323505   0.000000
     40         12.633666   0.000000
     41         12.800148   0.000000
     42         13.086242   0.000000
     43         14.403135   0.000000
     44         14.808907   0.000000
     45         15.454825   0.000000
     46         15.925720   0.000000
     47         16.145841   0.000000
     48         16.503112   0.000000
 
  0.2631579E+00  0.3703704E-01  0.0000000E+00  0.4586630E-03
      1        -12.580942   1.000000
      2        -11.810194   1.000000
      3         -8.584720   1.000000
      4         -8.392141   1.000000
      5         -5.978394   1.000000
      6         -5.833095   1.000000
      7         -4.711895   1.000000
      8         -3.869390   1.000000
      9         -3.212525   1.000000
     10         -2.861876   1.000000
     11         -2.655137   1.000000
     12         -2.254511   1.000000
     13         -2.026974   1.000000
     14         -1.975884   1.000000
     15         -0.254048   1.000000
     16          0.002641   1.000000
     17          0.134593   1.000000
     18          0.169281   1.000000
     19          0.458811   1.000000
     20          1.760535   0.999601
     21          1.834372   0.897029
     22          1.849172   0.801279
     23          5.685513   0.000000
     24          5.712671   0.000000
     25          6.233408   0.000000
     26          6.589917   0.000000
     27          6.791505   0.000000
     28          6.948493   0.000000
     29          8.259594   0.000000
     30          8.820930   0.000000
     31          8.988580   0.000000
     32          9.639446   0.000000
     33          9.717306   0.000000
     34         10.189049   0.000000
     35         10.462769   0.000000
     36         10.654444   0.000000
     37         11.393569   0.000000
     38         11.882235   0.000000
     39         12.414675   0.000000
     40         12.485395   0.000000
     41         12.848862   0.000000
     42         12.856543   0.000000
     43         14.697457   0.000000
     44         14.983867   0.000000
     45         15.151724   0.000000
     46         15.939134   0.000000
     47         15.951347   0.000000
     48         16.252413   0.000000
 
  0.3157895E+00  0.3703704E-01  0.0000000E+00  0.4586630E-03
      1        -12.517810   1.000000
      2        -11.898272   1.000000
      3         -8.552727   1.000000
      4         -8.389180   1.000000
      5         -6.019052   1.000000
      6         -5.962224   1.000000
      7         -4.551696   1.000000
      8         -3.783157   1.000000