<?xml version="1.0" encoding="ISO-8859-1"?>
<modeling>
 <generator>
  <i name="program" type="string">vasp </i>
  <i name="version" type="string">6.4.3  </i>
  <i name="subversion" type="string">19Mar24 (build May 31 2024 16:31:43) complex                          parallel </i>
  <i name="platform" type="string">LinuxIFC </i>
  <i name="date" type="string">2024 11 01 </i>
  <i name="time" type="string">17:02:50 </i>
 </generator>
 <incar>
  <i type="string" name="SYSTEM">Convergence</i>
  <i type="int" name="ISTART">     0</i>
  <i type="string" name="PREC">Accurate</i>
  <i type="string" name="ALGO">Normal</i>
  <i type="int" name="ISPIN">     1</i>
  <i type="int" name="ICHARG">     2</i>
  <i type="int" name="NELM">   100</i>
  <i type="int" name="IBRION">    -1</i>
  <i name="EDIFF">      0.00000100</i>
  <i name="EDIFFG">     -0.00100000</i>
  <i type="int" name="NSW">     0</i>
  <i type="int" name="ISIF">     2</i>
  <i name="ENCUT">    480.00000000</i>
  <i name="POTIM">      0.50000000</i>
  <i type="int" name="ISMEAR">     0</i>
  <i name="SIGMA">      0.05000000</i>
  <i type="logical" name="LWAVE"> F  </i>
  <i type="logical" name="LCHARG"> F  </i>
  <i type="string" name="GGA">PE</i>
 </incar>
 <primitive_cell>
  <structure name="primitive_cell" >
   <crystal>
    <varray name="basis" >
     <v>      15.00000000       0.00000000       0.00000000 </v>
     <v>       0.00000000      12.50000000       0.00000000 </v>
     <v>       0.00000000       0.00000000      18.00000000 </v>
    </varray>
    <i name="volume">   3375.00000000 </i>
    <varray name="rec_basis" >
     <v>       0.06666667       0.00000000       0.00000000 </v>
     <v>       0.00000000       0.08000000       0.00000000 </v>
     <v>       0.00000000       0.00000000       0.05555556 </v>
    </varray>
   </crystal>
   <varray name="positions" >
    <v>       0.52123000       0.54500000       0.63796000 </v>
   </varray>
  </structure>
  <varray name="primitive_index" >
   <v type="int" >        1 </v>
  </varray>
 </primitive_cell>
 <kpoints>
  <generation param="Monkhorst-Pack">
   <v type="int" name="divisions">      10       14        9 </v>
   <v name="usershift">      0.00000000       0.00000000       0.00000000 </v>
   <v name="genvec1">      0.10000000       0.00000000       0.00000000 </v>
   <v name="genvec2">      0.00000000       0.07142857       0.00000000 </v>
   <v name="genvec3">      0.00000000       0.00000000       0.11111111 </v>
   <v name="shift">      0.50000000       0.50000000       0.00000000 </v>
  </generation>
  <varray name="kpointlist" >
   <v>       0.05000000       0.03571429       0.00000000 </v>
   <v>       0.15000000       0.03571429       0.00000000 </v>
   <v>       0.25000000       0.03571429       0.00000000 </v>
   <v>       0.35000000       0.03571429       0.00000000 </v>
   <v>       0.45000000       0.03571429       0.00000000 </v>
   <v>       0.05000000       0.10714286       0.00000000 </v>
   <v>       0.15000000       0.10714286       0.00000000 </v>
   <v>       0.25000000       0.10714286       0.00000000 </v>
   <v>       0.35000000       0.10714286       0.00000000 </v>
   <v>       0.45000000       0.10714286       0.00000000 </v>
   <v>       0.05000000       0.17857143       0.00000000 </v>
   <v>       0.15000000       0.17857143       0.00000000 </v>
   <v>       0.25000000       0.17857143       0.00000000 </v>
   <v>       0.35000000       0.17857143       0.00000000 </v>
   <v>       0.45000000       0.17857143       0.00000000 </v>
   <v>       0.05000000       0.25000000       0.00000000 </v>
   <v>       0.15000000       0.25000000       0.00000000 </v>
   <v>       0.25000000       0.25000000       0.00000000 </v>
   <v>       0.35000000       0.25000000       0.00000000 </v>
   <v>       0.45000000       0.25000000       0.00000000 </v>
   <v>       0.05000000       0.32142857       0.00000000 </v>
   <v>       0.15000000       0.32142857       0.00000000 </v>
   <v>       0.25000000       0.32142857       0.00000000 </v>
   <v>       0.35000000       0.32142857       0.00000000 </v>
   <v>       0.45000000       0.32142857       0.00000000 </v>
   <v>       0.05000000       0.39285714       0.00000000 </v>
   <v>       0.15000000       0.39285714       0.00000000 </v>
   <v>       0.25000000       0.39285714       0.00000000 </v>
   <v>       0.35000000       0.39285714       0.00000000 </v>
   <v>       0.45000000       0.39285714       0.00000000 </v>
   <v>       0.05000000       0.46428571       0.00000000 </v>
   <v>       0.15000000       0.46428571       0.00000000 </v>
   <v>       0.25000000       0.46428571       0.00000000 </v>
   <v>       0.35000000       0.46428571       0.00000000 </v>
   <v>       0.45000000       0.46428571       0.00000000 </v>
   <v>       0.05000000       0.03571429       0.11111111 </v>
   <v>       0.15000000       0.03571429       0.11111111 </v>
   <v>       0.25000000       0.03571429       0.11111111 </v>
   <v>       0.35000000       0.03571429       0.11111111 </v>
   <v>       0.45000000       0.03571429       0.11111111 </v>
   <v>       0.05000000       0.10714286       0.11111111 </v>
   <v>       0.15000000       0.10714286       0.11111111 </v>
   <v>       0.25000000       0.10714286       0.11111111 </v>
   <v>       0.35000000       0.10714286       0.11111111 </v>
   <v>       0.45000000       0.10714286       0.11111111 </v>
   <v>       0.05000000       0.17857143       0.11111111 </v>
   <v>       0.15000000       0.17857143       0.11111111 </v>
   <v>       0.25000000       0.17857143       0.11111111 </v>
   <v>       0.35000000       0.17857143       0.11111111 </v>
   <v>       0.45000000       0.17857143       0.11111111 </v>
   <v>       0.05000000       0.25000000       0.11111111 </v>
   <v>       0.15000000       0.25000000       0.11111111 </v>
   <v>       0.25000000       0.25000000       0.11111111 </v>
   <v>       0.35000000       0.25000000       0.11111111 </v>
   <v>       0.45000000       0.25000000       0.11111111 </v>
   <v>       0.05000000       0.32142857       0.11111111 </v>
   <v>       0.15000000       0.32142857       0.11111111 </v>
   <v>       0.25000000       0.32142857       0.11111111 </v>
   <v>       0.35000000       0.32142857       0.11111111 </v>
   <v>       0.45000000       0.32142857       0.11111111 </v>
   <v>       0.05000000       0.39285714       0.11111111 </v>
   <v>       0.15000000       0.39285714       0.11111111 </v>
   <v>       0.25000000       0.39285714       0.11111111 </v>
   <v>       0.35000000       0.39285714       0.11111111 </v>
   <v>       0.45000000       0.39285714       0.11111111 </v>
   <v>       0.05000000       0.46428571       0.11111111 </v>
   <v>       0.15000000       0.46428571       0.11111111 </v>
   <v>       0.25000000       0.46428571       0.11111111 </v>
   <v>       0.35000000       0.46428571       0.11111111 </v>
   <v>       0.45000000       0.46428571       0.11111111 </v>
   <v>       0.05000000       0.03571429       0.22222222 </v>
   <v>       0.15000000       0.03571429       0.22222222 </v>
   <v>       0.25000000       0.03571429       0.22222222 </v>
   <v>       0.35000000       0.03571429       0.22222222 </v>
   <v>       0.45000000       0.03571429       0.22222222 </v>
   <v>       0.05000000       0.10714286       0.22222222 </v>
   <v>       0.15000000       0.10714286       0.22222222 </v>
   <v>       0.25000000       0.10714286       0.22222222 </v>
   <v>       0.35000000       0.10714286       0.22222222 </v>
   <v>       0.45000000       0.10714286       0.22222222 </v>
   <v>       0.05000000       0.17857143       0.22222222 </v>
   <v>       0.15000000       0.17857143       0.22222222 </v>
   <v>       0.25000000       0.17857143       0.22222222 </v>
   <v>       0.35000000       0.17857143       0.22222222 </v>
   <v>       0.45000000       0.17857143       0.22222222 </v>
   <v>       0.05000000       0.25000000       0.22222222 </v>
   <v>       0.15000000       0.25000000       0.22222222 </v>
   <v>       0.25000000       0.25000000       0.22222222 </v>
   <v>       0.35000000       0.25000000       0.22222222 </v>
   <v>       0.45000000       0.25000000       0.22222222 </v>
   <v>       0.05000000       0.32142857       0.22222222 </v>
   <v>       0.15000000       0.32142857       0.22222222 </v>
   <v>       0.25000000       0.32142857       0.22222222 </v>
   <v>       0.35000000       0.32142857       0.22222222 </v>
   <v>       0.45000000       0.32142857       0.22222222 </v>
   <v>       0.05000000       0.39285714       0.22222222 </v>
   <v>       0.15000000       0.39285714       0.22222222 </v>
   <v>       0.25000000       0.39285714       0.22222222 </v>
   <v>       0.35000000       0.39285714       0.22222222 </v>
   <v>       0.45000000       0.39285714       0.22222222 </v>
   <v>       0.05000000       0.46428571       0.22222222 </v>
   <v>       0.15000000       0.46428571       0.22222222 </v>
   <v>       0.25000000       0.46428571       0.22222222 </v>
   <v>       0.35000000       0.46428571       0.22222222 </v>
   <v>       0.45000000       0.46428571       0.22222222 </v>
   <v>       0.05000000       0.03571429       0.33333333 </v>
   <v>       0.15000000       0.03571429       0.33333333 </v>
   <v>       0.25000000       0.03571429       0.33333333 </v>
   <v>       0.35000000       0.03571429       0.33333333 </v>
   <v>       0.45000000       0.03571429       0.33333333 </v>
   <v>       0.05000000       0.10714286       0.33333333 </v>
   <v>       0.15000000       0.10714286       0.33333333 </v>
   <v>       0.25000000       0.10714286       0.33333333 </v>
   <v>       0.35000000       0.10714286       0.33333333 </v>
   <v>       0.45000000       0.10714286       0.33333333 </v>
   <v>       0.05000000       0.17857143       0.33333333 </v>
   <v>       0.15000000       0.17857143       0.33333333 </v>
   <v>       0.25000000       0.17857143       0.33333333 </v>
   <v>       0.35000000       0.17857143       0.33333333 </v>
   <v>       0.45000000       0.17857143       0.33333333 </v>
   <v>       0.05000000       0.25000000       0.33333333 </v>
   <v>       0.15000000       0.25000000       0.33333333 </v>
   <v>       0.25000000       0.25000000       0.33333333 </v>
   <v>       0.35000000       0.25000000       0.33333333 </v>
   <v>       0.45000000       0.25000000       0.33333333 </v>
   <v>       0.05000000       0.32142857       0.33333333 </v>
   <v>       0.15000000       0.32142857       0.33333333 </v>
   <v>       0.25000000       0.32142857       0.33333333 </v>
   <v>       0.35000000       0.32142857       0.33333333 </v>
   <v>       0.45000000       0.32142857       0.33333333 </v>
   <v>       0.05000000       0.39285714       0.33333333 </v>
   <v>       0.15000000       0.39285714       0.33333333 </v>
   <v>       0.25000000       0.39285714       0.33333333 </v>
   <v>       0.35000000       0.39285714       0.33333333 </v>
   <v>       0.45000000       0.39285714       0.33333333 </v>
   <v>       0.05000000       0.46428571       0.33333333 </v>
   <v>       0.15000000       0.46428571       0.33333333 </v>
   <v>       0.25000000       0.46428571       0.33333333 </v>
   <v>       0.35000000       0.46428571       0.33333333 </v>
   <v>       0.45000000       0.46428571       0.33333333 </v>
   <v>       0.05000000       0.03571429       0.44444444 </v>
   <v>       0.15000000       0.03571429       0.44444444 </v>
   <v>       0.25000000       0.03571429       0.44444444 </v>
   <v>       0.35000000       0.03571429       0.44444444 </v>
   <v>       0.45000000       0.03571429       0.44444444 </v>
   <v>       0.05000000       0.10714286       0.44444444 </v>
   <v>       0.15000000       0.10714286       0.44444444 </v>
   <v>       0.25000000       0.10714286       0.44444444 </v>
   <v>       0.35000000       0.10714286       0.44444444 </v>
   <v>       0.45000000       0.10714286       0.44444444 </v>
   <v>       0.05000000       0.17857143       0.44444444 </v>
   <v>       0.15000000       0.17857143       0.44444444 </v>
   <v>       0.25000000       0.17857143       0.44444444 </v>
   <v>       0.35000000       0.17857143       0.44444444 </v>
   <v>       0.45000000       0.17857143       0.44444444 </v>
   <v>       0.05000000       0.25000000       0.44444444 </v>
   <v>       0.15000000       0.25000000       0.44444444 </v>
   <v>       0.25000000       0.25000000       0.44444444 </v>
   <v>       0.35000000       0.25000000       0.44444444 </v>
   <v>       0.45000000       0.25000000       0.44444444 </v>
   <v>       0.05000000       0.32142857       0.44444444 </v>
   <v>       0.15000000       0.32142857       0.44444444 </v>
   <v>       0.25000000       0.32142857       0.44444444 </v>
   <v>       0.35000000       0.32142857       0.44444444 </v>
   <v>       0.45000000       0.32142857       0.44444444 </v>
   <v>       0.05000000       0.39285714       0.44444444 </v>
   <v>       0.15000000       0.39285714       0.44444444 </v>
   <v>       0.25000000       0.39285714       0.44444444 </v>
   <v>       0.35000000       0.39285714       0.44444444 </v>
   <v>       0.45000000       0.39285714       0.44444444 </v>
   <v>       0.05000000       0.46428571       0.44444444 </v>
   <v>       0.15000000       0.46428571       0.44444444 </v>
   <v>       0.25000000       0.46428571       0.44444444 </v>
   <v>       0.35000000       0.46428571       0.44444444 </v>
   <v>       0.45000000       0.46428571       0.44444444 </v>
  </varray>
  <varray name="weights" >
   <v>       0.00317460 </v>
   <v>       0.00317460 </v>
   <v>       0.00317460 </v>
   <v>       0.00317460 </v>
   <v>       0.00317460 </v>
   <v>       0.00317460 </v>
   <v>       0.00317460 </v>
   <v>       0.00317460 </v>
   <v>       0.00317460 </v>
   <v>       0.00317460 </v>
   <v>       0.00317460 </v>
   <v>       0.00317460 </v>
   <v>       0.00317460 </v>
   <v>       0.00317460 </v>
   <v>       0.00317460 </v>
   <v>       0.00317460 </v>
   <v>       0.00317460 </v>
   <v>       0.00317460 </v>
   <v>       0.00317460 </v>
   <v>       0.00317460 </v>
   <v>       0.00317460 </v>
   <v>       0.00317460 </v>
   <v>       0.00317460 </v>
   <v>       0.00317460 </v>
   <v>       0.00317460 </v>
   <v>       0.00317460 </v>
   <v>       0.00317460 </v>
   <v>       0.00317460 </v>
   <v>       0.00317460 </v>
   <v>       0.00317460 </v>
   <v>       0.00317460 </v>
   <v>       0.00317460 </v>
   <v>       0.00317460 </v>
   <v>       0.00317460 </v>
   <v>       0.00317460 </v>
   <v>       0.00634921 </v>
   <v>       0.00634921 </v>
   <v>       0.00634921 </v>
   <v>       0.00634921 </v>
   <v>       0.00634921 </v>
   <v>       0.00634921 </v>
   <v>       0.00634921 </v>
   <v>       0.00634921 </v>
   <v>       0.00634921 </v>
   <v>       0.00634921 </v>
   <v>       0.00634921 </v>
   <v>       0.00634921 </v>
   <v>       0.00634921 </v>
   <v>       0.00634921 </v>
   <v>       0.00634921 </v>
   <v>       0.00634921 </v>
   <v>       0.00634921 </v>
   <v>       0.00634921 </v>
   <v>       0.00634921 </v>
   <v>       0.00634921 </v>
   <v>       0.00634921 </v>
   <v>       0.00634921 </v>
   <v>       0.00634921 </v>
   <v>       0.00634921 </v>
   <v>       0.00634921 </v>
   <v>       0.00634921 </v>
   <v>       0.00634921 </v>
   <v>       0.00634921 </v>
   <v>       0.00634921 </v>
   <v>       0.00634921 </v>
   <v>       0.00634921 </v>
   <v>       0.00634921 </v>
   <v>       0.00634921 </v>
   <v>       0.00634921 </v>
   <v>       0.00634921 </v>
   <v>       0.00634921 </v>
   <v>       0.00634921 </v>
   <v>       0.00634921 </v>
   <v>       0.00634921 </v>
   <v>       0.00634921 </v>
   <v>       0.00634921 </v>
   <v>       0.00634921 </v>
   <v>       0.00634921 </v>
   <v>       0.00634921 </v>
   <v>       0.00634921 </v>
   <v>       0.00634921 </v>
   <v>       0.00634921 </v>
   <v>       0.00634921 </v>
   <v>       0.00634921 </v>
   <v>       0.00634921 </v>
   <v>       0.00634921 </v>
   <v>       0.00634921 </v>
   <v>       0.00634921 </v>
   <v>       0.00634921 </v>
   <v>       0.00634921 </v>
   <v>       0.00634921 </v>
   <v>       0.00634921 </v>
   <v>       0.00634921 </v>
   <v>       0.00634921 </v>
   <v>       0.00634921 </v>
   <v>       0.00634921 </v>
   <v>       0.00634921 </v>
   <v>       0.00634921 </v>
   <v>       0.00634921 </v>
   <v>       0.00634921 </v>
   <v>       0.00634921 </v>
   <v>       0.00634921 </v>
   <v>       0.00634921 </v>
   <v>       0.00634921 </v>
   <v>       0.00634921 </v>
   <v>       0.00634921 </v>
   <v>       0.00634921 </v>
   <v>       0.00634921 </v>
   <v>       0.00634921 </v>
   <v>       0.00634921 </v>
   <v>       0.00634921 </v>
   <v>       0.00634921 </v>
   <v>       0.00634921 </v>
   <v>       0.00634921 </v>
   <v>       0.00634921 </v>
   <v>       0.00634921 </v>
   <v>       0.00634921 </v>
   <v>       0.00634921 </v>
   <v>       0.00634921 </v>
   <v>       0.00634921 </v>
   <v>       0.00634921 </v>
   <v>       0.00634921 </v>
   <v>       0.00634921 </v>
   <v>       0.00634921 </v>
   <v>       0.00634921 </v>
   <v>       0.00634921 </v>
   <v>       0.00634921 </v>
   <v>       0.00634921 </v>
   <v>       0.00634921 </v>
   <v>       0.00634921 </v>
   <v>       0.00634921 </v>
   <v>       0.00634921 </v>
   <v>       0.00634921 </v>
   <v>       0.00634921 </v>
   <v>       0.00634921 </v>
   <v>       0.00634921 </v>
   <v>       0.00634921 </v>
   <v>       0.00634921 </v>
   <v>       0.00634921 </v>
   <v>       0.00634921 </v>
   <v>       0.00634921 </v>
   <v>       0.00634921 </v>
   <v>       0.00634921 </v>
   <v>       0.00634921 </v>
   <v>       0.00634921 </v>
   <v>       0.00634921 </v>
   <v>       0.00634921 </v>
   <v>       0.00634921 </v>
   <v>       0.00634921 </v>
   <v>       0.00634921 </v>
   <v>       0.00634921 </v>
   <v>       0.00634921 </v>
   <v>       0.00634921 </v>
   <v>       0.00634921 </v>
   <v>       0.00634921 </v>
   <v>       0.00634921 </v>
   <v>       0.00634921 </v>
   <v>       0.00634921 </v>
   <v>       0.00634921 </v>
   <v>       0.00634921 </v>
   <v>       0.00634921 </v>
   <v>       0.00634921 </v>
   <v>       0.00634921 </v>
   <v>       0.00634921 </v>
   <v>       0.00634921 </v>
   <v>       0.00634921 </v>
   <v>       0.00634921 </v>
   <v>       0.00634921 </v>
   <v>       0.00634921 </v>
   <v>       0.00634921 </v>
   <v>       0.00634921 </v>
   <v>       0.00634921 </v>
   <v>       0.00634921 </v>
   <v>       0.00634921 </v>
   <v>       0.00634921 </v>
  </varray>
 </kpoints>
 <parameters>
  <separator name="general" >
   <i type="string" name="SYSTEM">Convergence</i>
   <i type="logical" name="LCOMPAT"> F  </i>
  </separator>
  <separator name="electronic" >
   <i type="string" name="PREC">accura</i>
   <i name="ENMAX">    480.00000000</i>
   <i name="ENAUG">    535.51400000</i>
   <i name="EDIFF">      0.00000100</i>
   <i type="int" name="IALGO">    38</i>
   <i type="int" name="IWAVPR">    10</i>
   <i type="int" name="NBANDS">    24</i>
   <i type="int" name="NBANDSLOW">    -1</i>
   <i type="int" name="NBANDSHIGH">    -1</i>
   <i name="NELECT">      3.00000000</i>
   <i type="int" name="TURBO">     0</i>
   <i type="int" name="IRESTART">     0</i>
   <i type="int" name="NREBOOT">     0</i>
   <i type="int" name="NMIN">     0</i>
   <i name="EREF">      0.00000000</i>
   <separator name="electronic smearing" >
    <i type="int" name="ISMEAR">     0</i>
    <i name="SIGMA">      0.05000000</i>
    <i name="KSPACING">      0.50000000</i>
    <i type="logical" name="KGAMMA"> T  </i>
    <i type="logical" name="KBLOWUP"> T  </i>
   </separator>
   <separator name="electronic projectors" >
    <i type="logical" name="LREAL"> F  </i>
    <v name="ROPT">      0.00000000</v>
    <i type="int" name="LMAXPAW">  -100</i>
    <i type="int" name="LMAXMIX">     2</i>
    <i type="logical" name="NLSPLINE"> F  </i>
   </separator>
   <separator name="electronic startup" >
    <i type="int" name="ISTART">     0</i>
    <i type="int" name="ICHARG">     2</i>
    <i type="int" name="INIWAV">     1</i>
   </separator>
   <separator name="electronic spin" >
    <i type="int" name="ISPIN">     1</i>
    <i type="logical" name="LNONCOLLINEAR"> F  </i>
    <v name="MAGMOM">      1.00000000</v>
    <i name="NUPDOWN">     -1.00000000</i>
    <i type="logical" name="LSORBIT"> F  </i>
    <v name="SAXIS">      0.00000000      0.00000000      1.00000000</v>
    <i type="logical" name="LSPIRAL"> F  </i>
    <v name="QSPIRAL">      0.00000000      0.00000000      0.00000000</v>
    <i type="logical" name="LZEROZ"> F  </i>
   </separator>
   <separator name="electronic exchange-correlation" >
    <i type="logical" name="LASPH"> F  </i>
   </separator>
   <separator name="electronic convergence" >
    <i type="int" name="NELM">   100</i>
    <i type="int" name="NELMDL">    -5</i>
    <i type="int" name="NELMIN">     2</i>
    <i name="ENINI">    480.00000000</i>
    <separator name="electronic convergence detail" >
     <i type="logical" name="LDIAG"> T  </i>
     <i type="logical" name="LSUBROT"> F  </i>
     <i name="WEIMIN">      0.00000000</i>
     <i name="EBREAK">      0.00000001</i>
     <i name="DEPER">      0.30000000</i>
     <i type="int" name="NRMM">     4</i>
     <i name="TIME">      0.40000000</i>
    </separator>
   </separator>
   <separator name="electronic mixer" >
    <i name="AMIX">      0.40000000</i>
    <i name="BMIX">      1.00000000</i>
    <i name="AMIN">      0.10000000</i>
    <i name="AMIX_MAG">      1.60000000</i>
    <i name="BMIX_MAG">      1.00000000</i>
    <separator name="electronic mixer details" >
     <i type="int" name="IMIX">     4</i>
     <i type="logical" name="MIXFIRST"> F  </i>
     <i type="int" name="MAXMIX">   -45</i>
     <i name="WC">    100.00000000</i>
     <i type="int" name="INIMIX">     1</i>
     <i type="int" name="MIXPRE">     1</i>
     <i type="int" name="MREMOVE">     5</i>
    </separator>
   </separator>
   <separator name="electronic dipolcorrection" >
    <i type="logical" name="LDIPOL"> F  </i>
    <i type="logical" name="LMONO"> F  </i>
    <i type="int" name="IDIPOL">     0</i>
    <i name="EPSILON">      1.00000000</i>
    <v name="DIPOL">   -100.00000000   -100.00000000   -100.00000000</v>
    <i name="EFIELD">      0.00000000</i>
    <i type="logical" name="LVACPOTAV"> F  </i>
   </separator>
  </separator>
  <separator name="grids" >
   <i type="int" name="NGX">   108</i>
   <i type="int" name="NGY">    90</i>
   <i type="int" name="NGZ">   140</i>
   <i type="int" name="NGXF">   216</i>
   <i type="int" name="NGYF">   180</i>
   <i type="int" name="NGZF">   280</i>
   <i type="logical" name="ADDGRID"> F  </i>
  </separator>
  <separator name="ionic" >
   <i type="int" name="NSW">     0</i>
   <i type="int" name="IBRION">    -1</i>
   <i type="int" name="MDALGO">     0</i>
   <i type="int" name="ISIF">     2</i>
   <i name="PSTRESS">      0.00000000</i>
   <i name="EDIFFG">     -0.00100000</i>
   <i type="int" name="NFREE">     0</i>
   <i name="POTIM">      0.50000000</i>
   <i name="SMASS">     -3.00000000</i>
   <i name="SCALEE">      1.00000000</i>
  </separator>
  <separator name="ionic md" >
   <i name="TEBEG">      0.00010000</i>
   <i name="TEEND">      0.00010000</i>
   <i type="int" name="NBLOCK">     1</i>
   <i type="int" name="KBLOCK">     1</i>
   <i type="int" name="NPACO">   256</i>
   <i name="APACO">     10.00000000</i>
  </separator>
  <separator name="symmetry" >
   <i type="int" name="ISYM">     2</i>
   <i name="SYMPREC">      0.00001000</i>
  </separator>
  <separator name="dos" >
   <i type="int" name="LORBIT">     0</i>
   <v name="RWIGS">     -1.00000000</v>
   <i type="int" name="NEDOS">   301</i>
   <i name="EMIN">     10.00000000</i>
   <i name="EMAX">    -10.00000000</i>
   <i name="EFERMI">      0.00000000</i>
  </separator>
  <separator name="writing" >
   <i type="int" name="NWRITE">     2</i>
   <i type="logical" name="LWAVE"> F  </i>
   <i type="logical" name="LDOWNSAMPLE"> F  </i>
   <i type="logical" name="LCHARG"> F  </i>
   <i type="logical" name="LPARD"> F  </i>
   <i type="logical" name="LVTOT"> F  </i>
   <i type="logical" name="LVHAR"> F  </i>
   <i type="logical" name="LELF"> F  </i>
   <i type="logical" name="LOPTICS"> F  </i>
   <v name="STM">      0.00000000      0.00000000      0.00000000      0.00000000      0.00000000      0.00000000      0.00000000</v>
  </separator>
  <separator name="performance" >
   <i type="int" name="NPAR">    24</i>
   <i type="int" name="NSIM">     4</i>
   <i type="int" name="NBLK">    -1</i>
   <i type="logical" name="LPLANE"> T  </i>
   <i type="logical" name="LSCALAPACK"> T  </i>
   <i type="logical" name="LSCAAWARE"> F  </i>
   <i type="logical" name="LSCALU"> F  </i>
   <i type="logical" name="LASYNC"> F  </i>
   <i type="logical" name="LORBITALREAL"> F  </i>
  </separator>
  <separator name="miscellaneous" >
   <i type="int" name="IDIOT">     3</i>
   <i type="int" name="PHON_NSTRUCT">    -1</i>
   <i type="logical" name="LMUSIC"> F  </i>
   <v name="POMASS">     10.81100000</v>
   <v name="DARWINR">      0.00000000</v>
   <v name="DARWINV">      1.00000000</v>
   <i type="logical" name="LCORR"> T  </i>
  </separator>
  <i type="logical" name="GGA_COMPAT"> T  </i>
  <i type="logical" name="LBERRY"> F  </i>
  <i type="int" name="ICORELEVEL">     0</i>
  <i type="logical" name="LDAU"> F  </i>
  <i type="int" name="I_CONSTRAINED_M">     0</i>
  <separator name="electronic exchange-correlation" >
   <i type="string" name="GGA    ">PE</i>
   <i type="string" name="XC_C">1</i>
   <i type="int" name="VOSKOWN">     0</i>
   <i type="logical" name="LHFCALC"> F  </i>
   <i type="string" name="PRECFOCK"></i>
   <i type="logical" name="LSYMGRAD"> F  </i>
   <i type="logical" name="LHFONE"> F  </i>
   <i type="logical" name="LRHFCALC"> F  </i>
   <i type="logical" name="LTHOMAS"> F  </i>
   <i type="logical" name="LMODELHF"> F  </i>
   <i type="logical" name="LFOCKACE"> F  </i>
   <i name="ENCUT4O">     -1.00000000</i>
   <i type="int" name="EXXOEP">     0</i>
   <i type="int" name="FOURORBIT">     0</i>
   <i name="AEXX">      0.00000000</i>
   <i name="HFALPHA">      0.00000000</i>
   <i name="MCALPHA">      0.00000000</i>
   <i name="ALDAX">      1.00000000</i>
   <i name="AGGAX">      1.00000000</i>
   <i name="AMGGAX">      1.00000000</i>
   <i name="ALDAC">      1.00000000</i>
   <i name="AGGAC">      1.00000000</i>
   <i name="AMGGAC">      1.00000000</i>
   <i type="int" name="NKREDX">     1</i>
   <i type="int" name="NKREDY">     1</i>
   <i type="int" name="NKREDZ">     1</i>
   <i type="logical" name="SHIFTRED"> F  </i>
   <i type="logical" name="ODDONLY"> F  </i>
   <i type="logical" name="EVENONLY"> F  </i>
   <i type="int" name="LMAXFOCK">     0</i>
   <i type="int" name="NMAXFOCKAE">     0</i>
   <i type="logical" name="LFOCKAEDFT"> F  </i>
   <i name="HFSCREEN">      0.00000000</i>
   <i name="HFSCREENC">      0.00000000</i>
   <i type="int" name="NBANDSGWLOW">     0</i>
  </separator>
  <separator name="vdW DFT" >
   <i type="logical" name="LUSE_VDW"> F  </i>
   <i type="int" name="IVDW_NL">    -1</i>
   <i type="logical" name="LSPIN_VDW"> F  </i>
   <i name="ZAB_VDW">     -0.84910000</i>
   <i name="GAMMA_VDW">      1.39626340</i>
   <i name="ALPHA_VDW">      0.00000000</i>
   <i name="PARAM1">      0.12340000</i>
   <i name="PARAM2">      1.00000000</i>
   <i name="BPARAM">      6.30000000</i>
   <i name="CPARAM">      0.00930000</i>
  </separator>
  <separator name="model GW" >
   <i type="int" name="MODEL_GW">     0</i>
   <i name="MODEL_EPS0">   2025.00000000</i>
   <i name="MODEL_ALPHA">      1.00000000</i>
  </separator>
  <separator name="linear response parameters" >
   <i type="logical" name="LEPSILON"> F  </i>
   <i type="logical" name="LRPA"> F  </i>
   <i type="logical" name="LNABLA"> F  </i>
   <i type="logical" name="LVEL"> F  </i>
   <i name="CSHIFT">      0.10000000</i>
   <i name="OMEGAMAX">     -1.00000000</i>
   <i name="DEG_THRESHOLD">      0.00200000</i>
   <i name="RTIME">     -0.10000000</i>
   <i name="WPLASMAI">      0.00000000</i>
   <v name="DFIELD">      0.00000000      0.00000000      0.00000000</v>
   <v name="WPLASMA">      0.00000000      0.00000000      0.00000000      0.00000000      0.00000000      0.00000000      0.00000000      0.00000000      0.00000000</v>
  </separator>
  <separator name="orbital magnetization" >
   <i type="logical" name="NUCIND"> F  </i>
   <v name="MAGPOS">      0.00000000      0.00000000      0.00000000</v>
   <i type="logical" name="LNICSALL"> T  </i>
   <i type="logical" name="ORBITALMAG"> F  </i>
   <i type="logical" name="LMAGBLOCH"> F  </i>
   <i type="logical" name="LCHIMAG"> F  </i>
   <i type="logical" name="LGAUGE"> T  </i>
   <i type="int" name="MAGATOM">     0</i>
   <v name="MAGDIPOL">      0.00000000      0.00000000      0.00000000</v>
   <v name="AVECCONST">      0.00000000      0.00000000      0.00000000</v>
  </separator>
  <separator name="response functions" >
   <i type="logical" name="LALL_IN_ONE"> F  </i>
   <i type="int" name="IALL_IN_ONE">    -1</i>
   <i type="int" name="NBANDS_WAVE">    -1</i>
   <i type="logical" name="LFINITE_TEMPERATURE"> F  </i>
   <i type="logical" name="LADDER"> F  </i>
   <i type="logical" name="LRPAFORCE"> F  </i>
   <i type="logical" name="LFXC"> F  </i>
   <i type="logical" name="LHARTREE"> T  </i>
   <i type="int" name="IBSE">     0</i>
   <v type="int" name="KPOINT">    -1     0     0     0</v>
   <i type="logical" name="LTCTC"> F  </i>
   <i type="logical" name="LTCTE"> F  </i>
   <i type="logical" name="LTETE"> F  </i>
   <i type="logical" name="LTRIPLET"> F  </i>
   <i type="logical" name="LFXCEPS"> F  </i>
   <i type="logical" name="LFXHEG"> F  </i>
   <i type="int" name="NATURALO">     2</i>
   <i type="logical" name="LHOLEGF"> F  </i>
   <i type="logical" name="L2ORDER"> F  </i>
   <i type="logical" name="LDMP1"> F  </i>
   <i type="logical" name="LMP2LT"> F  </i>
   <i type="logical" name="LSMP2LT"> F  </i>
   <i type="logical" name="LGWLF"> F  </i>
   <i name="ENCUTGW">     -1.60000002</i>
   <i name="ENCUTGWSOFT">     -1.60000002</i>
   <i name="ENCUTLF">     -1.00000000</i>
   <i type="logical" name="ESF_SPLINES"> F  </i>
   <i name="ESF_CONV">      0.01000000</i>
   <i type="int" name="ESF_NINTER">    15</i>
   <i type="int" name="LMAXMP2">    -1</i>
   <i name="SCISSOR">      0.00000000</i>
   <i type="int" name="NOMEGA">     0</i>
   <i type="int" name="NOMEGAR">     0</i>
   <i type="int" name="NBANDSGW">    -1</i>
   <i type="int" name="NBANDSO">    -1</i>
   <i type="int" name="NBANDSV">    -1</i>
   <i type="int" name="NELMGW">     1</i>
   <i type="int" name="NELMHF">     1</i>
   <i type="int" name="DIM">     3</i>
   <i type="int" name="IESPILON">     4</i>
   <i type="int" name="ANTIRES">     0</i>
   <i name="OMEGAMAX">    -30.00000000</i>
   <i name="OMEGAMIN">    -30.00000000</i>
   <i name="OMEGATL">   -200.00000000</i>
   <i type="int" name="OMEGAGRID">     0</i>
   <i name="CSHIFT">     -0.10000000</i>
   <i type="logical" name="LSELFENERGY"> F  </i>
   <i type="logical" name="LSPECTRAL"> F  </i>
   <i type="logical" name="LSPECTRALGW"> F  </i>
   <i type="logical" name="LSINGLES"> F  </i>
   <i type="logical" name="LFERMIGW"> F  </i>
   <i type="logical" name="ODDONLYGW"> F  </i>
   <i type="logical" name="EVENONLYGW"> F  </i>
   <i type="int" name="NKREDLFX">     1</i>
   <i type="int" name="NKREDLFY">     1</i>
   <i type="int" name="NKREDLFZ">     1</i>
   <i type="int" name="MAXMEM">  2800</i>
   <i type="int" name="TELESCOPE">     0</i>
   <i type="int" name="NTAUPAR">    -1</i>
   <i type="int" name="NOMEGAPAR">    -1</i>
   <i name="DAMP_NEWTON">      0.80000001</i>
   <i name="LAMBDA">      1.00000000</i>
  </separator>
  <separator name="External order field" >
   <i name="OFIELD_KAPPA">      0.00000000</i>
   <v name="OFIELD_K">      0.00000000      0.00000000      0.00000000</v>
   <i name="OFIELD_Q6_NEAR">      0.00000000</i>
   <i name="OFIELD_Q6_FAR">      0.00000000</i>
   <i name="OFIELD_A">      0.00000000</i>
  </separator>
  <separator name="optional k-points parameters" >
   <i type="int" name="KPOINTS_OPT_MODE">     1</i>
   <i type="logical" name="LKPOINTS_OPT"> F  </i>
  </separator>
 </parameters>
 <atominfo>
  <atoms>       1 </atoms>
  <types>       1 </types>
  <array name="atoms" >
   <dimension dim="1">ion</dimension>
   <field type="string">element</field>
   <field type="int">atomtype</field>
   <set>
    <rc><c>B </c><c>   1</c></rc>
   </set>
  </array>
  <array name="atomtypes" >
   <dimension dim="1">type</dimension>
   <field type="int">atomspertype</field>
   <field type="string">element</field>
   <field>mass</field>
   <field>valence</field>
   <field type="string">pseudopotential</field>
   <set>
    <rc><c>   1</c><c>B </c><c>     10.81100000</c><c>      3.00000000</c><c>  PAW_PBE B 06Sep2000                   </c></rc>
   </set>
  </array>
 </atominfo>
 <structure name="initialpos" >
  <crystal>
   <varray name="basis" >
    <v>      15.00000000       0.00000000       0.00000000 </v>
    <v>       0.00000000      12.50000000       0.00000000 </v>
    <v>       0.00000000       0.00000000      18.00000000 </v>
   </varray>
   <i name="volume">   3375.00000000 </i>
   <varray name="rec_basis" >
    <v>       0.06666667       0.00000000       0.00000000 </v>
    <v>       0.00000000       0.08000000       0.00000000 </v>
    <v>       0.00000000       0.00000000       0.05555556 </v>
   </varray>
  </crystal>
  <varray name="positions" >
   <v>       0.52123000       0.54500000       0.63796000 </v>
  </varray>
 </structure>
 <calculation>
  <scstep>
   <time name="dav">   54.06   54.93</time>
   <time name="total">   54.48   55.38</time>
   <energy>
    <i name="alphaZ">      0.02038373 </i>
    <i name="ewald">    -11.82901664 </i>
    <i name="hartreedc">    -42.58396533 </i>
    <i name="XCdc">      4.75549673 </i>
    <i name="pawpsdc">     43.49986551 </i>
    <i name="pawaedc">    -42.64454556 </i>
    <i name="eentropy">     -0.01207517 </i>
    <i name="bandstr">    -14.81901031 </i>
    <i name="atom">     71.16900941 </i>
    <i name="e_fr_energy">      7.55614237 </i>
    <i name="e_wo_entrp">      7.56821754 </i>
    <i name="e_0_energy">      7.56217996 </i>
   </energy>
  </scstep>
  <scstep>
   <time name="dav">   88.51   90.14</time>
   <time name="total">   88.52   90.16</time>
   <energy>
    <i name="e_fr_energy">      0.07017876 </i>
    <i name="e_wo_entrp">      0.10245908 </i>
    <i name="e_0_energy">      0.08631892 </i>
   </energy>
  </scstep>
  <scstep>
   <time name="dav">   54.99   56.12</time>
   <time name="total">   55.01   56.15</time>
   <energy>
    <i name="e_fr_energy">     -0.05586577 </i>
    <i name="e_wo_entrp">     -0.00290926 </i>
    <i name="e_0_energy">     -0.02938752 </i>
   </energy>
  </scstep>
  <scstep>
   <time name="dav">   60.19   61.26</time>
   <time name="total">   60.22   61.30</time>
   <energy>
    <i name="e_fr_energy">     -0.05824495 </i>
    <i name="e_wo_entrp">     -0.00524363 </i>
    <i name="e_0_energy">     -0.03174429 </i>
   </energy>
  </scstep>
  <scstep>
   <time name="dav">   73.32   74.79</time>
   <time name="total">   76.67   78.18</time>
   <energy>
    <i name="e_fr_energy">     -0.05827179 </i>
    <i name="e_wo_entrp">     -0.00527045 </i>
    <i name="e_0_energy">     -0.03177112 </i>
   </energy>
  </scstep>
  <scstep>
   <time name="dav">   65.05   66.27</time>
   <time name="total">   65.48   66.73</time>
   <energy>
    <i name="alphaZ">      0.02038373 </i>
    <i name="ewald">    -11.82901664 </i>
    <i name="hartreedc">    -42.58388696 </i>
    <i name="XCdc">      4.75537069 </i>
    <i name="pawpsdc">     43.51356711 </i>
    <i name="pawaedc">    -42.65835367 </i>
    <i name="eentropy">     -0.05300134 </i>
    <i name="bandstr">    -22.39234442 </i>
    <i name="atom">     71.16900941 </i>
    <i name="e_fr_energy">     -0.05827209 </i>
    <i name="e_wo_entrp">     -0.00527075 </i>
    <i name="e_0_energy">     -0.03177142 </i>
   </energy>
  </scstep>
  <structure>
   <crystal>
    <varray name="basis" >
     <v>      15.00000000       0.00000000       0.00000000 </v>
     <v>       0.00000000      12.50000000       0.00000000 </v>
     <v>       0.00000000       0.00000000      18.00000000 </v>
    </varray>
    <i name="volume">   3375.00000000 </i>
    <varray name="rec_basis" >
     <v>       0.06666667       0.00000000       0.00000000 </v>
     <v>       0.00000000       0.08000000       0.00000000 </v>
     <v>       0.00000000       0.00000000       0.05555556 </v>
    </varray>
   </crystal>
   <varray name="positions" >
    <v>       0.52123000       0.54500000       0.63796000 </v>
   </varray>
  </structure>
  <varray name="forces" >
   <v>       0.00000000       0.00000000      -0.00000000 </v>
  </varray>
  <varray name="stress" >
   <v>      -0.00063245      -0.00000000       0.00000000 </v>
   <v>      -0.00000000      -0.00057114       0.00000000 </v>
   <v>       0.00000000       0.00000000      -0.00062526 </v>
  </varray>
  <energy>
   <i name="e_fr_energy">     -0.05827209 </i>
   <i name="e_wo_entrp">     -0.00527075 </i>
   <i name="e_0_energy">     -0.03177142 </i>
  </energy>
  <time name="totalsc">  444.91  452.81</time>
  <eigenvalues>
   <array>
    <dimension dim="1">band</dimension>
    <dimension dim="2">kpoint</dimension>
    <dimension dim="3">spin</dimension>
    <field>eigene</field>
    <field>occ</field>
    <set>
     <set comment="spin 1">
      <set comment="kpoint 1">
       <r>   -9.4099    1.0000 </r>
       <r>   -3.5726    0.1667 </r>
       <r>   -3.5726    0.1667 </r>
       <r>   -3.5724    0.1659 </r>
       <r>   -0.2619    0.0000 </r>
       <r>    0.2941    0.0000 </r>
       <r>    0.3096    0.0000 </r>
       <r>    0.4392    0.0000 </r>
       <r>    0.5735    0.0000 </r>
       <r>    0.6866    0.0000 </r>
       <r>    0.8287    0.0000 </r>
       <r>    0.9105    0.0000 </r>
       <r>    0.9437    0.0000 </r>
       <r>    1.0356    0.0000 </r>
       <r>    1.0785    0.0000 </r>
       <r>    1.1738    0.0000 </r>
       <r>    1.2083    0.0000 </r>
       <r>    1.2893    0.0000 </r>
       <r>    1.3345    0.0000 </r>
       <r>    1.3521    0.0000 </r>
       <r>    1.4279    0.0000 </r>
       <r>    1.4984    0.0000 </r>
       <r>    1.5760    0.0000 </r>
       <r>    1.7074    0.0000 </r>
      </set>
      <set comment="kpoint 2">
       <r>   -9.4099    1.0000 </r>
       <r>   -3.5726    0.1667 </r>
       <r>   -3.5726    0.1667 </r>
       <r>   -3.5724    0.1659 </r>
       <r>   -0.2520    0.0000 </r>
       <r>    0.2688    0.0000 </r>
       <r>    0.3208    0.0000 </r>
       <r>    0.3735    0.0000 </r>
       <r>    0.6893    0.0000 </r>
       <r>    0.7079    0.0000 </r>
       <r>    0.8007    0.0000 </r>
       <r>    0.8302    0.0000 </r>
       <r>    0.8412    0.0000 </r>
       <r>    1.1516    0.0000 </r>
       <r>    1.1647    0.0000 </r>
       <r>    1.1976    0.0000 </r>
       <r>    1.2192    0.0000 </r>
       <r>    1.2568    0.0000 </r>
       <r>    1.3316    0.0000 </r>
       <r>    1.3511    0.0000 </r>
       <r>    1.3877    0.0000 </r>
       <r>    1.5763    0.0000 </r>
       <r>    1.6374    0.0000 </r>
       <r>    1.6876    0.0000 </r>
      </set>
      <set comment="kpoint 3">
       <r>   -9.4099    1.0000 </r>
       <r>   -3.5726    0.1667 </r>
       <r>   -3.5726    0.1667 </r>
       <r>   -3.5724    0.1659 </r>
       <r>   -0.2339    0.0000 </r>
       <r>    0.1990    0.0000 </r>
       <r>    0.3425    0.0000 </r>
       <r>    0.3754    0.0000 </r>
       <r>    0.7038    0.0000 </r>
       <r>    0.7113    0.0000 </r>
       <r>    0.7156    0.0000 </r>
       <r>    0.8543    0.0000 </r>
       <r>    0.8722    0.0000 </r>
       <r>    1.0894    0.0000 </r>
       <r>    1.1935    0.0000 </r>
       <r>    1.2338    0.0000 </r>
       <r>    1.2727    0.0000 </r>
       <r>    1.2952    0.0000 </r>
       <r>    1.3873    0.0000 </r>
       <r>    1.3985    0.0000 </r>
       <r>    1.4058    0.0000 </r>
       <r>    1.5958    0.0000 </r>
       <r>    1.5965    0.0000 </r>
       <r>    1.6492    0.0000 </r>
      </set>
      <set comment="kpoint 4">
       <r>   -9.4099    1.0000 </r>
       <r>   -3.5726    0.1668 </r>
       <r>   -3.5726    0.1667 </r>
       <r>   -3.5724    0.1659 </r>
       <r>   -0.2116    0.0000 </r>
       <r>    0.1312    0.0000 </r>
       <r>    0.3716    0.0000 </r>
       <r>    0.4066    0.0000 </r>
       <r>    0.6241    0.0000 </r>
       <r>    0.6265    0.0000 </r>
       <r>    0.7393    0.0000 </r>
       <r>    0.8873    0.0000 </r>
       <r>    1.0010    0.0000 </r>
       <r>    1.0402    0.0000 </r>
       <r>    1.1667    0.0000 </r>
       <r>    1.2195    0.0000 </r>
       <r>    1.3068    0.0000 </r>
       <r>    1.3626    0.0000 </r>
       <r>    1.4360    0.0000 </r>
       <r>    1.4849    0.0000 </r>
       <r>    1.5051    0.0000 </r>
       <r>    1.5452    0.0000 </r>
       <r>    1.5587    0.0000 </r>
       <r>    1.6049    0.0000 </r>
      </set>
      <set comment="kpoint 5">
       <r>   -9.4099    1.0000 </r>
       <r>   -3.5726    0.1668 </r>
       <r>   -3.5726    0.1667 </r>
       <r>   -3.5724    0.1659 </r>
       <r>   -0.1946    0.0000 </r>
       <r>    0.0900    0.0000 </r>
       <r>    0.3982    0.0000 </r>
       <r>    0.4448    0.0000 </r>
       <r>    0.5608    0.0000 </r>
       <r>    0.5723    0.0000 </r>
       <r>    0.7597    0.0000 </r>
       <r>    0.9122    0.0000 </r>
       <r>    0.9705    0.0000 </r>
       <r>    1.1009    0.0000 </r>
       <r>    1.2118    0.0000 </r>
       <r>    1.2393    0.0000 </r>
       <r>    1.3415    0.0000 </r>
       <r>    1.4033    0.0000 </r>
       <r>    1.4037    0.0000 </r>
       <r>    1.4479    0.0000 </r>
       <r>    1.4531    0.0000 </r>
       <r>    1.5155    0.0000 </r>
       <r>    1.5807    0.0000 </r>
       <r>    1.5830    0.0000 </r>
      </set>
      <set comment="kpoint 6">
       <r>   -9.4099    1.0000 </r>
       <r>   -3.5726    0.1667 </r>
       <r>   -3.5726    0.1667 </r>
       <r>   -3.5725    0.1660 </r>
       <r>   -0.2528    0.0000 </r>
       <r>    0.3022    0.0000 </r>
       <r>    0.3186    0.0000 </r>
       <r>    0.4480    0.0000 </r>
       <r>    0.5619    0.0000 </r>
       <r>    0.5920    0.0000 </r>
       <r>    0.9180    0.0000 </r>
       <r>    0.9462    0.0000 </r>
       <r>    0.9636    0.0000 </r>
       <r>    1.0248    0.0000 </r>
       <r>    1.0843    0.0000 </r>
       <r>    1.0872    0.0000 </r>
       <r>    1.0953    0.0000 </r>
       <r>    1.1890    0.0000 </r>
       <r>    1.3340    0.0000 </r>
       <r>    1.4557    0.0000 </r>
       <r>    1.4927    0.0000 </r>
       <r>    1.5842    0.0000 </r>
       <r>    1.6377    0.0000 </r>
       <r>    1.6791    0.0000 </r>
      </set>
      <set comment="kpoint 7">
       <r>   -9.4099    1.0000 </r>
       <r>   -3.5726    0.1667 </r>
       <r>   -3.5726    0.1667 </r>
       <r>   -3.5725    0.1660 </r>
       <r>   -0.2429    0.0000 </r>
       <r>    0.2772    0.0000 </r>
       <r>    0.3298    0.0000 </r>
       <r>    0.3824    0.0000 </r>
       <r>    0.5788    0.0000 </r>
       <r>    0.7120    0.0000 </r>
       <r>    0.8094    0.0000 </r>
       <r>    0.8401    0.0000 </r>
       <r>    0.9675    0.0000 </r>
       <r>    1.0588    0.0000 </r>
       <r>    1.0616    0.0000 </r>
       <r>    1.1355    0.0000 </r>
       <r>    1.1928    0.0000 </r>
       <r>    1.2339    0.0000 </r>
       <r>    1.4202    0.0000 </r>
       <r>    1.4658    0.0000 </r>
       <r>    1.4701    0.0000 </r>
       <r>    1.5583    0.0000 </r>
       <r>    1.5745    0.0000 </r>
       <r>    1.6047    0.0000 </r>
      </set>
      <set comment="kpoint 8">
       <r>   -9.4099    1.0000 </r>
       <r>   -3.5726    0.1667 </r>
       <r>   -3.5726    0.1667 </r>
       <r>   -3.5725    0.1660 </r>
       <r>   -0.2248    0.0000 </r>
       <r>    0.2081    0.0000 </r>
       <r>    0.3514    0.0000 </r>
       <r>    0.3840    0.0000 </r>
       <r>    0.5993    0.0000 </r>
       <r>    0.7129    0.0000 </r>
       <r>    0.7208    0.0000 </r>
       <r>    0.8740    0.0000 </r>
       <r>    0.9647    0.0000 </r>
       <r>    1.0030    0.0000 </r>
       <r>    1.0847    0.0000 </r>
       <r>    1.1519    0.0000 </r>
       <r>    1.3248    0.0000 </r>
       <r>    1.3499    0.0000 </r>
       <r>    1.3962    0.0000 </r>
       <r>    1.4684    0.0000 </r>
       <r>    1.4975    0.0000 </r>
       <r>    1.5093    0.0000 </r>
       <r>    1.5316    0.0000 </r>
       <r>    1.6318    0.0000 </r>
      </set>
      <set comment="kpoint 9">
       <r>   -9.4099    1.0000 </r>
       <r>   -3.5726    0.1668 </r>
       <r>   -3.5726    0.1667 </r>
       <r>   -3.5725    0.1660 </r>
       <r>   -0.2026    0.0000 </r>
       <r>    0.1405    0.0000 </r>
       <r>    0.3804    0.0000 </r>
       <r>    0.4151    0.0000 </r>
       <r>    0.6252    0.0000 </r>
       <r>    0.6335    0.0000 </r>
       <r>    0.6358    0.0000 </r>
       <r>    0.8937    0.0000 </r>
       <r>    1.0185    0.0000 </r>
       <r>    1.0393    0.0000 </r>
       <r>    1.1122    0.0000 </r>
       <r>    1.1874    0.0000 </r>
       <r>    1.2916    0.0000 </r>
       <r>    1.3685    0.0000 </r>
       <r>    1.3988    0.0000 </r>
       <r>    1.4848    0.0000 </r>
       <r>    1.5451    0.0000 </r>
       <r>    1.5513    0.0000 </r>
       <r>    1.5705    0.0000 </r>
       <r>    1.6405    0.0000 </r>
      </set>
      <set comment="kpoint 10">
       <r>   -9.4099    1.0000 </r>
       <r>   -3.5726    0.1668 </r>
       <r>   -3.5726    0.1667 </r>
       <r>   -3.5725    0.1660 </r>
       <r>   -0.1856    0.0000 </r>
       <r>    0.0994    0.0000 </r>
       <r>    0.4068    0.0000 </r>
       <r>    0.4532    0.0000 </r>
       <r>    0.5695    0.0000 </r>
       <r>    0.5819    0.0000 </r>
       <r>    0.6483    0.0000 </r>
       <r>    0.8499    0.0000 </r>
       <r>    1.0383    0.0000 </r>
       <r>    1.1354    0.0000 </r>
       <r>    1.1907    0.0000 </r>
       <r>    1.2302    0.0000 </r>
       <r>    1.2587    0.0000 </r>
       <r>    1.3312    0.0000 </r>
       <r>    1.3354    0.0000 </r>
       <r>    1.4198    0.0000 </r>
       <r>    1.5251    0.0000 </r>
       <r>    1.6420    0.0000 </r>
       <r>    1.6479    0.0000 </r>
       <r>    1.7059    0.0000 </r>
      </set>
      <set comment="kpoint 11">
       <r>   -9.4099    1.0000 </r>
       <r>   -3.5726    0.1667 </r>
       <r>   -3.5726    0.1666 </r>
       <r>   -3.5725    0.1663 </r>
       <r>   -0.2348    0.0000 </r>
       <r>    0.3151    0.0000 </r>
       <r>    0.3364    0.0000 </r>
       <r>    0.4611    0.0000 </r>
       <r>    0.4677    0.0000 </r>
       <r>    0.6045    0.0000 </r>
       <r>    0.9179    0.0000 </r>
       <r>    0.9544    0.0000 </r>
       <r>    0.9607    0.0000 </r>
       <r>    0.9741    0.0000 </r>
       <r>    1.0723    0.0000 </r>
       <r>    1.0794    0.0000 </r>
       <r>    1.1031    0.0000 </r>
       <r>    1.1346    0.0000 </r>
       <r>    1.2295    0.0000 </r>
       <r>    1.5462    0.0000 </r>
       <r>    1.5747    0.0000 </r>
       <r>    1.6086    0.0000 </r>
       <r>    1.6434    0.0000 </r>
       <r>    1.6601    0.0000 </r>
      </set>
      <set comment="kpoint 12">
       <r>   -9.4099    1.0000 </r>
       <r>   -3.5726    0.1667 </r>
       <r>   -3.5726    0.1667 </r>
       <r>   -3.5725    0.1663 </r>
       <r>   -0.2250    0.0000 </r>
       <r>    0.2924    0.0000 </r>
       <r>    0.3476    0.0000 </r>
       <r>    0.3990    0.0000 </r>
       <r>    0.4737    0.0000 </r>
       <r>    0.7290    0.0000 </r>
       <r>    0.8258    0.0000 </r>
       <r>    0.8566    0.0000 </r>
       <r>    0.9392    0.0000 </r>
       <r>    0.9580    0.0000 </r>
       <r>    1.0179    0.0000 </r>
       <r>    1.1274    0.0000 </r>
       <r>    1.2081    0.0000 </r>
       <r>    1.2526    0.0000 </r>
       <r>    1.3425    0.0000 </r>
       <r>    1.4515    0.0000 </r>
       <r>    1.4797    0.0000 </r>
       <r>    1.6101    0.0000 </r>
       <r>    1.6135    0.0000 </r>
       <r>    1.6740    0.0000 </r>
      </set>
      <set comment="kpoint 13">
       <r>   -9.4099    1.0000 </r>
       <r>   -3.5726    0.1667 </r>
       <r>   -3.5726    0.1667 </r>
       <r>   -3.5725    0.1663 </r>
       <r>   -0.2070    0.0000 </r>
       <r>    0.2257    0.0000 </r>
       <r>    0.3691    0.0000 </r>
       <r>    0.3981    0.0000 </r>
       <r>    0.4943    0.0000 </r>
       <r>    0.7309    0.0000 </r>
       <r>    0.7354    0.0000 </r>
       <r>    0.8571    0.0000 </r>
       <r>    0.9020    0.0000 </r>
       <r>    0.9780    0.0000 </r>
       <r>    1.0261    0.0000 </r>
       <r>    1.1481    0.0000 </r>
       <r>    1.3184    0.0000 </r>
       <r>    1.3457    0.0000 </r>
       <r>    1.3921    0.0000 </r>
       <r>    1.4073    0.0000 </r>
       <r>    1.5008    0.0000 </r>
       <r>    1.5548    0.0000 </r>
       <r>    1.6301    0.0000 </r>
       <r>    1.6902    0.0000 </r>
      </set>
      <set comment="kpoint 14">
       <r>   -9.4099    1.0000 </r>
       <r>   -3.5726    0.1667 </r>
       <r>   -3.5726    0.1667 </r>
       <r>   -3.5725    0.1663 </r>
       <r>   -0.1849    0.0000 </r>
       <r>    0.1589    0.0000 </r>
       <r>    0.3979    0.0000 </r>
       <r>    0.4280    0.0000 </r>
       <r>    0.5217    0.0000 </r>
       <r>    0.6510    0.0000 </r>
       <r>    0.6521    0.0000 </r>
       <r>    0.7870    0.0000 </r>
       <r>    1.0057    0.0000 </r>
       <r>    1.0504    0.0000 </r>
       <r>    1.0636    0.0000 </r>
       <r>    1.1733    0.0000 </r>
       <r>    1.2668    0.0000 </r>
       <r>    1.2730    0.0000 </r>
       <r>    1.4478    0.0000 </r>
       <r>    1.5158    0.0000 </r>
       <r>    1.5793    0.0000 </r>
       <r>    1.6033    0.0000 </r>
       <r>    1.6586    0.0000 </r>
       <r>    1.6817    0.0000 </r>
      </set>
      <set comment="kpoint 15">
       <r>   -9.4099    1.0000 </r>
       <r>   -3.5726    0.1668 </r>
       <r>   -3.5726    0.1667 </r>
       <r>   -3.5725    0.1663 </r>
       <r>   -0.1680    0.0000 </r>
       <r>    0.1182    0.0000 </r>
       <r>    0.4239    0.0000 </r>
       <r>    0.4644    0.0000 </r>
       <r>    0.5464    0.0000 </r>
       <r>    0.5861    0.0000 </r>
       <r>    0.6009    0.0000 </r>
       <r>    0.7396    0.0000 </r>
       <r>    1.0301    0.0000 </r>
       <r>    1.0936    0.0000 </r>
       <r>    1.1890    0.0000 </r>
       <r>    1.1949    0.0000 </r>
       <r>    1.2190    0.0000 </r>
       <r>    1.2495    0.0000 </r>
       <r>    1.3871    0.0000 </r>
       <r>    1.4593    0.0000 </r>
       <r>    1.6349    0.0000 </r>
       <r>    1.6927    0.0000 </r>
       <r>    1.7398    0.0000 </r>
       <r>    1.7649    0.0000 </r>
      </set>
      <set comment="kpoint 16">
       <r>   -9.4099    1.0000 </r>
       <r>   -3.5726    0.1667 </r>
       <r>   -3.5726    0.1667 </r>
       <r>   -3.5725    0.1666 </r>
       <r>   -0.2089    0.0000 </r>
       <r>    0.3072    0.0000 </r>
       <r>    0.3628    0.0000 </r>
       <r>    0.3993    0.0000 </r>
       <r>    0.4919    0.0000 </r>
       <r>    0.6317    0.0000 </r>
       <r>    0.8382    0.0000 </r>
       <r>    0.8577    0.0000 </r>
       <r>    0.9582    0.0000 </r>
       <r>    0.9702    0.0000 </r>
       <r>    1.0204    0.0000 </r>
       <r>    1.1026    0.0000 </r>
       <r>    1.1081    0.0000 </r>
       <r>    1.1507    0.0000 </r>
       <r>    1.2755    0.0000 </r>
       <r>    1.4612    0.0000 </r>
       <r>    1.4832    0.0000 </r>
       <r>    1.5837    0.0000 </r>
       <r>    1.6213    0.0000 </r>
       <r>    1.6942    0.0000 </r>
      </set>
      <set comment="kpoint 17">
       <r>   -9.4099    1.0000 </r>
       <r>   -3.5726    0.1667 </r>
       <r>   -3.5726    0.1667 </r>
       <r>   -3.5725    0.1666 </r>
       <r>   -0.1991    0.0000 </r>
       <r>    0.3003    0.0000 </r>
       <r>    0.3739    0.0000 </r>
       <r>    0.3843    0.0000 </r>
       <r>    0.4352    0.0000 </r>
       <r>    0.7517    0.0000 </r>
       <r>    0.8299    0.0000 </r>
       <r>    0.8329    0.0000 </r>
       <r>    0.8788    0.0000 </r>
       <r>    0.8924    0.0000 </r>
       <r>    0.9208    0.0000 </r>
       <r>    1.2217    0.0000 </r>
       <r>    1.2301    0.0000 </r>
       <r>    1.2791    0.0000 </r>
       <r>    1.2967    0.0000 </r>
       <r>    1.3556    0.0000 </r>
       <r>    1.3869    0.0000 </r>
       <r>    1.6932    0.0000 </r>
       <r>    1.6989    0.0000 </r>
       <r>    1.7458    0.0000 </r>
      </set>
      <set comment="kpoint 18">
       <r>   -9.4099    1.0000 </r>
       <r>   -3.5726    0.1667 </r>
       <r>   -3.5726    0.1667 </r>
       <r>   -3.5726    0.1667 </r>
       <r>   -0.1812    0.0000 </r>
       <r>    0.2497    0.0000 </r>
       <r>    0.3743    0.0000 </r>
       <r>    0.3952    0.0000 </r>
       <r>    0.4494    0.0000 </r>
       <r>    0.7274    0.0000 </r>
       <r>    0.7566    0.0000 </r>
       <r>    0.7956    0.0000 </r>
       <r>    0.8805    0.0000 </r>
       <r>    0.9225    0.0000 </r>
       <r>    0.9262    0.0000 </r>
       <r>    1.2406    0.0000 </r>
       <r>    1.2457    0.0000 </r>
       <r>    1.2910    0.0000 </r>
       <r>    1.3943    0.0000 </r>
       <r>    1.4188    0.0000 </r>
       <r>    1.4443    0.0000 </r>
       <r>    1.6749    0.0000 </r>
       <r>    1.7404    0.0000 </r>
       <r>    1.7409    0.0000 </r>
      </set>
      <set comment="kpoint 19">
       <r>   -9.4099    1.0000 </r>
       <r>   -3.5726    0.1667 </r>
       <r>   -3.5726    0.1667 </r>
       <r>   -3.5726    0.1667 </r>
       <r>   -0.1594    0.0000 </r>
       <r>    0.1860    0.0000 </r>
       <r>    0.3968    0.0000 </r>
       <r>    0.4236    0.0000 </r>
       <r>    0.4819    0.0000 </r>
       <r>    0.6501    0.0000 </r>
       <r>    0.6796    0.0000 </r>
       <r>    0.7137    0.0000 </r>
       <r>    0.9075    0.0000 </r>
       <r>    0.9572    0.0000 </r>
       <r>    1.0803    0.0000 </r>
       <r>    1.1651    0.0000 </r>
       <r>    1.1694    0.0000 </r>
       <r>    1.3201    0.0000 </r>
       <r>    1.5402    0.0000 </r>
       <r>    1.5435    0.0000 </r>
       <r>    1.5824    0.0000 </r>
       <r>    1.6489    0.0000 </r>
       <r>    1.6684    0.0000 </r>
       <r>    1.7678    0.0000 </r>
      </set>
      <set comment="kpoint 20">
       <r>   -9.4099    1.0000 </r>
       <r>   -3.5726    0.1667 </r>
       <r>   -3.5726    0.1667 </r>
       <r>   -3.5726    0.1667 </r>
       <r>   -0.1428    0.0000 </r>
       <r>    0.1461    0.0000 </r>
       <r>    0.4214    0.0000 </r>
       <r>    0.4491    0.0000 </r>
       <r>    0.5186    0.0000 </r>
       <r>    0.5930    0.0000 </r>
       <r>    0.6293    0.0000 </r>
       <r>    0.6571    0.0000 </r>
       <r>    0.9329    0.0000 </r>
       <r>    0.9976    0.0000 </r>
       <r>    1.0961    0.0000 </r>
       <r>    1.1145    0.0000 </r>
       <r>    1.2562    0.0000 </r>
       <r>    1.3417    0.0000 </r>
       <r>    1.4453    0.0000 </r>
       <r>    1.5796    0.0000 </r>
       <r>    1.6868    0.0000 </r>
       <r>    1.7217    0.0000 </r>
       <r>    1.7724    0.0000 </r>
       <r>    1.8014    0.0000 </r>
      </set>
      <set comment="kpoint 21">
       <r>   -9.4099    1.0000 </r>
       <r>   -3.5726    0.1670 </r>
       <r>   -3.5726    0.1666 </r>
       <r>   -3.5725    0.1666 </r>
       <r>   -0.1767    0.0000 </r>
       <r>    0.2429    0.0000 </r>
       <r>    0.3970    0.0000 </r>
       <r>    0.4134    0.0000 </r>
       <r>    0.5254    0.0000 </r>
       <r>    0.6675    0.0000 </r>
       <r>    0.7511    0.0000 </r>
       <r>    0.7618    0.0000 </r>
       <r>    0.8819    0.0000 </r>
       <r>    1.0025    0.0000 </r>
       <r>    1.0231    0.0000 </r>
       <r>    1.0497    0.0000 </r>
       <r>    1.1359    0.0000 </r>
       <r>    1.1805    0.0000 </r>
       <r>    1.3721    0.0000 </r>
       <r>    1.3750    0.0000 </r>
       <r>    1.4365    0.0000 </r>
       <r>    1.4972    0.0000 </r>
       <r>    1.5401    0.0000 </r>
       <r>    1.7310    0.0000 </r>
      </set>
      <set comment="kpoint 22">
       <r>   -9.4099    1.0000 </r>
       <r>   -3.5726    0.1670 </r>
       <r>   -3.5726    0.1666 </r>
       <r>   -3.5725    0.1666 </r>
       <r>   -0.1671    0.0000 </r>
       <r>    0.2518    0.0000 </r>
       <r>    0.3841    0.0000 </r>
       <r>    0.4079    0.0000 </r>
       <r>    0.4686    0.0000 </r>
       <r>    0.7277    0.0000 </r>
       <r>    0.7613    0.0000 </r>
       <r>    0.7953    0.0000 </r>
       <r>    0.8239    0.0000 </r>
       <r>    0.8963    0.0000 </r>
       <r>    0.9343    0.0000 </r>
       <r>    1.1479    0.0000 </r>
       <r>    1.2320    0.0000 </r>
       <r>    1.2739    0.0000 </r>
       <r>    1.2961    0.0000 </r>
       <r>    1.3213    0.0000 </r>
       <r>    1.4506    0.0000 </r>
       <r>    1.6337    0.0000 </r>
       <r>    1.6675    0.0000 </r>
       <r>    1.7383    0.0000 </r>
      </set>
      <set comment="kpoint 23">
       <r>   -9.4099    1.0000 </r>
       <r>   -3.5726    0.1670 </r>
       <r>   -3.5726    0.1666 </r>
       <r>   -3.5726    0.1666 </r>
       <r>   -0.1495    0.0000 </r>
       <r>    0.2583    0.0000 </r>
       <r>    0.3213    0.0000 </r>
       <r>    0.4289    0.0000 </r>
       <r>    0.4793    0.0000 </r>
       <r>    0.6514    0.0000 </r>
       <r>    0.7708    0.0000 </r>
       <r>    0.8130    0.0000 </r>
       <r>    0.8164    0.0000 </r>
       <r>    0.8290    0.0000 </r>
       <r>    0.9593    0.0000 </r>
       <r>    1.1518    0.0000 </r>
       <r>    1.1571    0.0000 </r>
       <r>    1.3095    0.0000 </r>
       <r>    1.4240    0.0000 </r>
       <r>    1.4501    0.0000 </r>
       <r>    1.4968    0.0000 </r>
       <r>    1.7325    0.0000 </r>
       <r>    1.7717    0.0000 </r>
       <r>    1.8187    0.0000 </r>
      </set>
      <set comment="kpoint 24">
       <r>   -9.4099    1.0000 </r>
       <r>   -3.5726    0.1670 </r>
       <r>   -3.5726    0.1667 </r>
       <r>   -3.5726    0.1666 </r>
       <r>   -0.1281    0.0000 </r>
       <r>    0.2196    0.0000 </r>
       <r>    0.3193    0.0000 </r>
       <r>    0.4567    0.0000 </r>
       <r>    0.5120    0.0000 </r>
       <r>    0.5768    0.0000 </r>
       <r>    0.7148    0.0000 </r>
       <r>    0.7321    0.0000 </r>
       <r>    0.8207    0.0000 </r>
       <r>    0.8619    0.0000 </r>
       <r>    1.0633    0.0000 </r>
       <r>    1.0721    0.0000 </r>
       <r>    1.1276    0.0000 </r>
       <r>    1.4385    0.0000 </r>
       <r>    1.5066    0.0000 </r>
       <r>    1.5762    0.0000 </r>
       <r>    1.6365    0.0000 </r>
       <r>    1.6695    0.0000 </r>
       <r>    1.8014    0.0000 </r>
       <r>    1.8329    0.0000 </r>
      </set>
      <set comment="kpoint 25">
       <r>   -9.4099    1.0000 </r>
       <r>   -3.5726    0.1670 </r>
       <r>   -3.5726    0.1667 </r>
       <r>   -3.5726    0.1666 </r>
       <r>   -0.1120    0.0000 </r>
       <r>    0.1827    0.0000 </r>
       <r>    0.3403    0.0000 </r>
       <r>    0.4812    0.0000 </r>
       <r>    0.5254    0.0000 </r>
       <r>    0.5526    0.0000 </r>
       <r>    0.6667    0.0000 </r>
       <r>    0.6672    0.0000 </r>
       <r>    0.8462    0.0000 </r>
       <r>    0.9027    0.0000 </r>
       <r>    1.0024    0.0000 </r>
       <r>    1.0196    0.0000 </r>
       <r>    1.2917    0.0000 </r>
       <r>    1.4547    0.0000 </r>
       <r>    1.5117    0.0000 </r>
       <r>    1.6435    0.0000 </r>
       <r>    1.7211    0.0000 </r>
       <r>    1.7378    0.0000 </r>
       <r>    1.8140    0.0000 </r>
       <r>    1.8337    0.0000 </r>
      </set>
      <set comment="kpoint 26">
       <r>   -9.4099    1.0000 </r>
       <r>   -3.5726    0.1673 </r>
       <r>   -3.5725    0.1666 </r>
       <r>   -3.5725    0.1666 </r>
       <r>   -0.1427    0.0000 </r>
       <r>    0.1759    0.0000 </r>
       <r>    0.4365    0.0000 </r>
       <r>    0.4557    0.0000 </r>
       <r>    0.5637    0.0000 </r>
       <r>    0.6753    0.0000 </r>
       <r>    0.6756    0.0000 </r>
       <r>    0.7102    0.0000 </r>
       <r>    0.8090    0.0000 </r>
       <r>    0.9457    0.0000 </r>
       <r>    1.0405    0.0000 </r>
       <r>    1.0934    0.0000 </r>
       <r>    1.1751    0.0000 </r>
       <r>    1.2270    0.0000 </r>
       <r>    1.2958    0.0000 </r>
       <r>    1.2999    0.0000 </r>
       <r>    1.4214    0.0000 </r>
       <r>    1.4300    0.0000 </r>
       <r>    1.6075    0.0000 </r>
       <r>    1.7761    0.0000 </r>
      </set>
      <set comment="kpoint 27">
       <r>   -9.4099    1.0000 </r>
       <r>   -3.5726    0.1673 </r>
       <r>   -3.5725    0.1666 </r>
       <r>   -3.5725    0.1666 </r>
       <r>   -0.1333    0.0000 </r>
       <r>    0.1869    0.0000 </r>
       <r>    0.4215    0.0000 </r>
       <r>    0.4472    0.0000 </r>
       <r>    0.5117    0.0000 </r>
       <r>    0.6507    0.0000 </r>
       <r>    0.6868    0.0000 </r>
       <r>    0.7374    0.0000 </r>
       <r>    0.8361    0.0000 </r>
       <r>    0.9353    0.0000 </r>
       <r>    0.9813    0.0000 </r>
       <r>    1.0733    0.0000 </r>
       <r>    1.1702    0.0000 </r>
       <r>    1.1905    0.0000 </r>
       <r>    1.3179    0.0000 </r>
       <r>    1.3684    0.0000 </r>
       <r>    1.5538    0.0000 </r>
       <r>    1.5604    0.0000 </r>
       <r>    1.6317    0.0000 </r>
       <r>    1.7815    0.0000 </r>
      </set>
      <set comment="kpoint 28">
       <r>   -9.4099    1.0000 </r>
       <r>   -3.5726    0.1673 </r>
       <r>   -3.5725    0.1666 </r>
       <r>   -3.5725    0.1666 </r>
       <r>   -0.1162    0.0000 </r>
       <r>    0.2077    0.0000 </r>
       <r>    0.3445    0.0000 </r>
       <r>    0.4675    0.0000 </r>
       <r>    0.5232    0.0000 </r>
       <r>    0.5747    0.0000 </r>
       <r>    0.7087    0.0000 </r>
       <r>    0.7438    0.0000 </r>
       <r>    0.8414    0.0000 </r>
       <r>    0.8593    0.0000 </r>
       <r>    0.9984    0.0000 </r>
       <r>    1.0730    0.0000 </r>
       <r>    1.0778    0.0000 </r>
       <r>    1.2369    0.0000 </r>
       <r>    1.4605    0.0000 </r>
       <r>    1.5176    0.0000 </r>
       <r>    1.6156    0.0000 </r>
       <r>    1.7090    0.0000 </r>
       <r>    1.7361    0.0000 </r>
       <r>    1.7813    0.0000 </r>
      </set>
      <set comment="kpoint 29">
       <r>   -9.4099    1.0000 </r>
       <r>   -3.5726    0.1673 </r>
       <r>   -3.5726    0.1666 </r>
       <r>   -3.5725    0.1666 </r>
       <r>   -0.0957    0.0000 </r>
       <r>    0.2318    0.0000 </r>
       <r>    0.2812    0.0000 </r>
       <r>    0.4942    0.0000 </r>
       <r>    0.4971    0.0000 </r>
       <r>    0.5588    0.0000 </r>
       <r>    0.7340    0.0000 </r>
       <r>    0.7704    0.0000 </r>
       <r>    0.7747    0.0000 </r>
       <r>    0.7778    0.0000 </r>
       <r>    0.9843    0.0000 </r>
       <r>    0.9908    0.0000 </r>
       <r>    1.1623    0.0000 </r>
       <r>    1.3947    0.0000 </r>
       <r>    1.6121    0.0000 </r>
       <r>    1.6137    0.0000 </r>
       <r>    1.6829    0.0000 </r>
       <r>    1.7095    0.0000 </r>
       <r>    1.8491    0.0000 </r>
       <r>    1.8831    0.0000 </r>
      </set>
      <set comment="kpoint 30">
       <r>   -9.4099    1.0000 </r>
       <r>   -3.5726    0.1673 </r>
       <r>   -3.5726    0.1667 </r>
       <r>   -3.5725    0.1666 </r>
       <r>   -0.0804    0.0000 </r>
       <r>    0.2260    0.0000 </r>
       <r>    0.2731    0.0000 </r>
       <r>    0.4472    0.0000 </r>
       <r>    0.5173    0.0000 </r>
       <r>    0.5976    0.0000 </r>
       <r>    0.7101    0.0000 </r>
       <r>    0.7113    0.0000 </r>
       <r>    0.7739    0.0000 </r>
       <r>    0.8175    0.0000 </r>
       <r>    0.9183    0.0000 </r>
       <r>    0.9361    0.0000 </r>
       <r>    1.3296    0.0000 </r>
       <r>    1.5008    0.0000 </r>
       <r>    1.5805    0.0000 </r>
       <r>    1.6389    0.0000 </r>
       <r>    1.7511    0.0000 </r>
       <r>    1.7536    0.0000 </r>
       <r>    1.8749    0.0000 </r>
       <r>    1.8801    0.0000 </r>
      </set>
      <set comment="kpoint 31">
       <r>   -9.4099    1.0000 </r>
       <r>   -3.5727    0.1675 </r>
       <r>   -3.5725    0.1666 </r>
       <r>   -3.5725    0.1665 </r>
       <r>   -0.1174    0.0000 </r>
       <r>    0.1330    0.0000 </r>
       <r>    0.4716    0.0000 </r>
       <r>    0.5035    0.0000 </r>
       <r>    0.5961    0.0000 </r>
       <r>    0.6079    0.0000 </r>
       <r>    0.6219    0.0000 </r>
       <r>    0.7465    0.0000 </r>
       <r>    0.7609    0.0000 </r>
       <r>    0.8878    0.0000 </r>
       <r>    1.0728    0.0000 </r>
       <r>    1.1453    0.0000 </r>
       <r>    1.2117    0.0000 </r>
       <r>    1.2279    0.0000 </r>
       <r>    1.2417    0.0000 </r>
       <r>    1.2823    0.0000 </r>
       <r>    1.3610    0.0000 </r>
       <r>    1.3690    0.0000 </r>
       <r>    1.7124    0.0000 </r>
       <r>    1.8536    0.0000 </r>
      </set>
      <set comment="kpoint 32">
       <r>   -9.4099    1.0000 </r>
       <r>   -3.5727    0.1675 </r>
       <r>   -3.5725    0.1666 </r>
       <r>   -3.5725    0.1666 </r>
       <r>   -0.1083    0.0000 </r>
       <r>    0.1447    0.0000 </r>
       <r>    0.4615    0.0000 </r>
       <r>    0.4818    0.0000 </r>
       <r>    0.5550    0.0000 </r>
       <r>    0.5896    0.0000 </r>
       <r>    0.6341    0.0000 </r>
       <r>    0.6770    0.0000 </r>
       <r>    0.8700    0.0000 </r>
       <r>    0.9715    0.0000 </r>
       <r>    1.0199    0.0000 </r>
       <r>    1.0361    0.0000 </r>
       <r>    1.1169    0.0000 </r>
       <r>    1.1171    0.0000 </r>
       <r>    1.3488    0.0000 </r>
       <r>    1.4213    0.0000 </r>
       <r>    1.5009    0.0000 </r>
       <r>    1.5092    0.0000 </r>
       <r>    1.7203    0.0000 </r>
       <r>    1.8539    0.0000 </r>
      </set>
      <set comment="kpoint 33">
       <r>   -9.4099    1.0000 </r>
       <r>   -3.5727    0.1675 </r>
       <r>   -3.5725    0.1666 </r>
       <r>   -3.5725    0.1666 </r>
       <r>   -0.0918    0.0000 </r>
       <r>    0.1674    0.0000 </r>
       <r>    0.3814    0.0000 </r>
       <r>    0.5012    0.0000 </r>
       <r>    0.5148    0.0000 </r>
       <r>    0.5730    0.0000 </r>
       <r>    0.6578    0.0000 </r>
       <r>    0.6765    0.0000 </r>
       <r>    0.8792    0.0000 </r>
       <r>    0.9054    0.0000 </r>
       <r>    0.9990    0.0000 </r>
       <r>    1.0154    0.0000 </r>
       <r>    1.0503    0.0000 </r>
       <r>    1.1809    0.0000 </r>
       <r>    1.4915    0.0000 </r>
       <r>    1.5708    0.0000 </r>
       <r>    1.6496    0.0000 </r>
       <r>    1.6614    0.0000 </r>
       <r>    1.7381    0.0000 </r>
       <r>    1.8284    0.0000 </r>
      </set>
      <set comment="kpoint 34">
       <r>   -9.4099    1.0000 </r>
       <r>   -3.5727    0.1675 </r>
       <r>   -3.5726    0.1666 </r>
       <r>   -3.5725    0.1666 </r>
       <r>   -0.0723    0.0000 </r>
       <r>    0.1987    0.0000 </r>
       <r>    0.3134    0.0000 </r>
       <r>    0.4383    0.0000 </r>
       <r>    0.5262    0.0000 </r>
       <r>    0.6071    0.0000 </r>
       <r>    0.6909    0.0000 </r>
       <r>    0.7082    0.0000 </r>
       <r>    0.8048    0.0000 </r>
       <r>    0.8253    0.0000 </r>
       <r>    0.9159    0.0000 </r>
       <r>    0.9302    0.0000 </r>
       <r>    1.1967    0.0000 </r>
       <r>    1.3446    0.0000 </r>
       <r>    1.6409    0.0000 </r>
       <r>    1.6963    0.0000 </r>
       <r>    1.7097    0.0000 </r>
       <r>    1.7718    0.0000 </r>
       <r>    1.8165    0.0000 </r>
       <r>    1.8266    0.0000 </r>
      </set>
      <set comment="kpoint 35">
       <r>   -9.4099    1.0000 </r>
       <r>   -3.5727    0.1675 </r>
       <r>   -3.5726    0.1667 </r>
       <r>   -3.5725    0.1666 </r>
       <r>   -0.0579    0.0000 </r>
       <r>    0.2293    0.0000 </r>
       <r>    0.2730    0.0000 </r>
       <r>    0.3848    0.0000 </r>
       <r>    0.5470    0.0000 </r>
       <r>    0.6466    0.0000 </r>
       <r>    0.7240    0.0000 </r>
       <r>    0.7486    0.0000 </r>
       <r>    0.7584    0.0000 </r>
       <r>    0.7601    0.0000 </r>
       <r>    0.8486    0.0000 </r>
       <r>    0.8716    0.0000 </r>
       <r>    1.3610    0.0000 </r>
       <r>    1.5134    0.0000 </r>
       <r>    1.5530    0.0000 </r>
       <r>    1.7169    0.0000 </r>
       <r>    1.7311    0.0000 </r>
       <r>    1.7769    0.0000 </r>
       <r>    1.9200    0.0000 </r>
       <r>    1.9268    0.0000 </r>
      </set>
      <set comment="kpoint 36">
       <r>   -9.4099    1.0000 </r>
       <r>   -3.5726    0.1667 </r>
       <r>   -3.5726    0.1667 </r>
       <r>   -3.5724    0.1659 </r>
       <r>   -0.2588    0.0000 </r>
       <r>    0.2172    0.0000 </r>
       <r>    0.3879    0.0000 </r>
       <r>    0.4524    0.0000 </r>
       <r>    0.5803    0.0000 </r>
       <r>    0.6900    0.0000 </r>
       <r>    0.8313    0.0000 </r>
       <r>    0.8371    0.0000 </r>
       <r>    0.9647    0.0000 </r>
       <r>    1.0291    0.0000 </r>
       <r>    1.1039    0.0000 </r>
       <r>    1.1631    0.0000 </r>
       <r>    1.2535    0.0000 </r>
       <r>    1.2698    0.0000 </r>
       <r>    1.3119    0.0000 </r>
       <r>    1.4140    0.0000 </r>
       <r>    1.4385    0.0000 </r>
       <r>    1.4971    0.0000 </r>
       <r>    1.5191    0.0000 </r>
       <r>    1.6263    0.0000 </r>
      </set>
      <set comment="kpoint 37">
       <r>   -9.4099    1.0000 </r>
       <r>   -3.5726    0.1667 </r>
       <r>   -3.5726    0.1667 </r>
       <r>   -3.5724    0.1659 </r>
       <r>   -0.2490    0.0000 </r>
       <r>    0.2226    0.0000 </r>
       <r>    0.3189    0.0000 </r>
       <r>    0.4382    0.0000 </r>
       <r>    0.6920    0.0000 </r>
       <r>    0.7056    0.0000 </r>
       <r>    0.7328    0.0000 </r>
       <r>    0.8438    0.0000 </r>
       <r>    0.9190    0.0000 </r>
       <r>    1.0926    0.0000 </r>
       <r>    1.1203    0.0000 </r>
       <r>    1.1922    0.0000 </r>
       <r>    1.2477    0.0000 </r>
       <r>    1.2984    0.0000 </r>
       <r>    1.3354    0.0000 </r>
       <r>    1.3475    0.0000 </r>
       <r>    1.4616    0.0000 </r>
       <r>    1.4999    0.0000 </r>
       <r>    1.5866    0.0000 </r>
       <r>    1.6318    0.0000 </r>
      </set>
      <set comment="kpoint 38">
       <r>   -9.4099    1.0000 </r>
       <r>   -3.5726    0.1667 </r>
       <r>   -3.5726    0.1667 </r>
       <r>   -3.5724    0.1659 </r>
       <r>   -0.2310    0.0000 </r>
       <r>    0.1969    0.0000 </r>
       <r>    0.2785    0.0000 </r>
       <r>    0.4581    0.0000 </r>
       <r>    0.6195    0.0000 </r>
       <r>    0.7178    0.0000 </r>
       <r>    0.8031    0.0000 </r>
       <r>    0.8619    0.0000 </r>
       <r>    0.8789    0.0000 </r>
       <r>    1.0898    0.0000 </r>
       <r>    1.1446    0.0000 </r>
       <r>    1.2332    0.0000 </r>
       <r>    1.2440    0.0000 </r>
       <r>    1.3030    0.0000 </r>
       <r>    1.3462    0.0000 </r>
       <r>    1.4548    0.0000 </r>
       <r>    1.4922    0.0000 </r>
       <r>    1.5149    0.0000 </r>
       <r>    1.5249    0.0000 </r>
       <r>    1.6407    0.0000 </r>
      </set>
      <set comment="kpoint 39">
       <r>   -9.4099    1.0000 </r>
       <r>   -3.5726    0.1668 </r>
       <r>   -3.5726    0.1667 </r>
       <r>   -3.5724    0.1659 </r>
       <r>   -0.2089    0.0000 </r>
       <r>    0.1352    0.0000 </r>
       <r>    0.3010    0.0000 </r>
       <r>    0.4870    0.0000 </r>
       <r>    0.5384    0.0000 </r>
       <r>    0.7279    0.0000 </r>
       <r>    0.7425    0.0000 </r>
       <r>    0.8910    0.0000 </r>
       <r>    1.0051    0.0000 </r>
       <r>    1.0444    0.0000 </r>
       <r>    1.1678    0.0000 </r>
       <r>    1.1742    0.0000 </r>
       <r>    1.3018    0.0000 </r>
       <r>    1.3645    0.0000 </r>
       <r>    1.4053    0.0000 </r>
       <r>    1.4639    0.0000 </r>
       <r>    1.4988    0.0000 </r>
       <r>    1.5363    0.0000 </r>
       <r>    1.5697    0.0000 </r>
       <r>    1.6071    0.0000 </r>
      </set>
      <set comment="kpoint 40">
       <r>   -9.4099    1.0000 </r>
       <r>   -3.5726    0.1668 </r>
       <r>   -3.5726    0.1667 </r>
       <r>   -3.5724    0.1659 </r>
       <r>   -0.1920    0.0000 </r>
       <r>    0.0949    0.0000 </r>
       <r>    0.3314    0.0000 </r>
       <r>    0.4717    0.0000 </r>
       <r>    0.5274    0.0000 </r>
       <r>    0.6707    0.0000 </r>
       <r>    0.7625    0.0000 </r>
       <r>    0.9156    0.0000 </r>
       <r>    0.9753    0.0000 </r>
       <r>    1.1055    0.0000 </r>
       <r>    1.1937    0.0000 </r>
       <r>    1.2188    0.0000 </r>
       <r>    1.3271    0.0000 </r>
       <r>    1.3671    0.0000 </r>
       <r>    1.4033    0.0000 </r>
       <r>    1.4265    0.0000 </r>
       <r>    1.4798    0.0000 </r>
       <r>    1.5401    0.0000 </r>
       <r>    1.5656    0.0000 </r>
       <r>    1.6110    0.0000 </r>
      </set>
      <set comment="kpoint 41">
       <r>   -9.4099    1.0000 </r>
       <r>   -3.5726    0.1667 </r>
       <r>   -3.5726    0.1667 </r>
       <r>   -3.5725    0.1660 </r>
       <r>   -0.2497    0.0000 </r>
       <r>    0.2262    0.0000 </r>
       <r>    0.3954    0.0000 </r>
       <r>    0.4612    0.0000 </r>
       <r>    0.5679    0.0000 </r>
       <r>    0.5971    0.0000 </r>
       <r>    0.8442    0.0000 </r>
       <r>    0.9497    0.0000 </r>
       <r>    0.9733    0.0000 </r>
       <r>    1.0000    0.0000 </r>
       <r>    1.0413    0.0000 </r>
       <r>    1.1625    0.0000 </r>
       <r>    1.1677    0.0000 </r>
       <r>    1.2087    0.0000 </r>
       <r>    1.3341    0.0000 </r>
       <r>    1.3954    0.0000 </r>
       <r>    1.4920    0.0000 </r>
       <r>    1.5694    0.0000 </r>
       <r>    1.5882    0.0000 </r>
       <r>    1.6281    0.0000 </r>
      </set>
      <set comment="kpoint 42">
       <r>   -9.4099    1.0000 </r>
       <r>   -3.5726    0.1667 </r>
       <r>   -3.5726    0.1667 </r>
       <r>   -3.5725    0.1660 </r>
       <r>   -0.2399    0.0000 </r>
       <r>    0.2316    0.0000 </r>
       <r>    0.3277    0.0000 </r>
       <r>    0.4462    0.0000 </r>
       <r>    0.5831    0.0000 </r>
       <r>    0.7089    0.0000 </r>
       <r>    0.7421    0.0000 </r>
       <r>    0.9258    0.0000 </r>
       <r>    0.9643    0.0000 </r>
       <r>    1.0048    0.0000 </r>
       <r>    1.0732    0.0000 </r>
       <r>    1.1251    0.0000 </r>
       <r>    1.1984    0.0000 </r>
       <r>    1.3083    0.0000 </r>
       <r>    1.4024    0.0000 </r>
       <r>    1.4121    0.0000 </r>
       <r>    1.4957    0.0000 </r>
       <r>    1.5134    0.0000 </r>
       <r>    1.5333    0.0000 </r>
       <r>    1.6066    0.0000 </r>
      </set>
      <set comment="kpoint 43">
       <r>   -9.4099    1.0000 </r>
       <r>   -3.5726    0.1667 </r>
       <r>   -3.5726    0.1667 </r>
       <r>   -3.5725    0.1660 </r>
       <r>   -0.2219    0.0000 </r>
       <r>    0.2060    0.0000 </r>
       <r>    0.2876    0.0000 </r>
       <r>    0.4659    0.0000 </r>
       <r>    0.6032    0.0000 </r>
       <r>    0.6290    0.0000 </r>
       <r>    0.8111    0.0000 </r>
       <r>    0.8844    0.0000 </r>
       <r>    0.9641    0.0000 </r>
       <r>    1.0067    0.0000 </r>
       <r>    1.0324    0.0000 </r>
       <r>    1.2172    0.0000 </r>
       <r>    1.2640    0.0000 </r>
       <r>    1.3471    0.0000 </r>
       <r>    1.4117    0.0000 </r>
       <r>    1.4164    0.0000 </r>
       <r>    1.4811    0.0000 </r>
       <r>    1.5343    0.0000 </r>
       <r>    1.5790    0.0000 </r>
       <r>    1.6000    0.0000 </r>
      </set>
      <set comment="kpoint 44">
       <r>   -9.4099    1.0000 </r>
       <r>   -3.5726    0.1668 </r>
       <r>   -3.5726    0.1667 </r>
       <r>   -3.5725    0.1660 </r>
       <r>   -0.1999    0.0000 </r>
       <r>    0.1445    0.0000 </r>
       <r>    0.3100    0.0000 </r>
       <r>    0.4948    0.0000 </r>
       <r>    0.5474    0.0000 </r>
       <r>    0.6299    0.0000 </r>
       <r>    0.7361    0.0000 </r>
       <r>    0.8985    0.0000 </r>
       <r>    1.0190    0.0000 </r>
       <r>    1.0428    0.0000 </r>
       <r>    1.0616    0.0000 </r>
       <r>    1.2419    0.0000 </r>
       <r>    1.2839    0.0000 </r>
       <r>    1.3197    0.0000 </r>
       <r>    1.4158    0.0000 </r>
       <r>    1.4738    0.0000 </r>
       <r>    1.4911    0.0000 </r>
       <r>    1.5544    0.0000 </r>
       <r>    1.6023    0.0000 </r>
       <r>    1.6518    0.0000 </r>
      </set>
      <set comment="kpoint 45">
       <r>   -9.4099    1.0000 </r>
       <r>   -3.5726    0.1668 </r>
       <r>   -3.5726    0.1667 </r>
       <r>   -3.5725    0.1660 </r>
       <r>   -0.1831    0.0000 </r>
       <r>    0.1043    0.0000 </r>
       <r>    0.3404    0.0000 </r>
       <r>    0.4809    0.0000 </r>
       <r>    0.5349    0.0000 </r>
       <r>    0.6519    0.0000 </r>
       <r>    0.6792    0.0000 </r>
       <r>    0.8553    0.0000 </r>
       <r>    1.0387    0.0000 </r>
       <r>    1.0891    0.0000 </r>
       <r>    1.1997    0.0000 </r>
       <r>    1.2227    0.0000 </r>
       <r>    1.2622    0.0000 </r>
       <r>    1.3107    0.0000 </r>
       <r>    1.4145    0.0000 </r>
       <r>    1.4302    0.0000 </r>
       <r>    1.4858    0.0000 </r>
       <r>    1.5823    0.0000 </r>
       <r>    1.6007    0.0000 </r>
       <r>    1.6592    0.0000 </r>
      </set>
      <set comment="kpoint 46">
       <r>   -9.4099    1.0000 </r>
       <r>   -3.5726    0.1667 </r>
       <r>   -3.5726    0.1666 </r>
       <r>   -3.5725    0.1663 </r>
       <r>   -0.2318    0.0000 </r>
       <r>    0.2436    0.0000 </r>
       <r>    0.4021    0.0000 </r>
       <r>    0.4711    0.0000 </r>
       <r>    0.4824    0.0000 </r>
       <r>    0.6108    0.0000 </r>
       <r>    0.8496    0.0000 </r>
       <r>    0.8807    0.0000 </r>
       <r>    0.9939    0.0000 </r>
       <r>    1.0248    0.0000 </r>
       <r>    1.0644    0.0000 </r>
       <r>    1.0951    0.0000 </r>
       <r>    1.1272    0.0000 </r>
       <r>    1.2005    0.0000 </r>
       <r>    1.2353    0.0000 </r>
       <r>    1.4764    0.0000 </r>
       <r>    1.5054    0.0000 </r>
       <r>    1.5512    0.0000 </r>
       <r>    1.6218    0.0000 </r>
       <r>    1.6643    0.0000 </r>
      </set>
      <set comment="kpoint 47">
       <r>   -9.4099    1.0000 </r>
       <r>   -3.5726    0.1667 </r>
       <r>   -3.5726    0.1667 </r>
       <r>   -3.5725    0.1663 </r>
       <r>   -0.2220    0.0000 </r>
       <r>    0.2488    0.0000 </r>
       <r>    0.3447    0.0000 </r>
       <r>    0.4492    0.0000 </r>
[...]
       <r>    1.0330    0.0000 </r>
       <r>    1.0705    0.0000 </r>
       <r>    1.1363    0.0000 </r>
       <r>    1.1587    0.0000 </r>
       <r>    1.2817    0.0000 </r>
       <r>    1.5663    0.0000 </r>
       <r>    1.6830    0.0000 </r>
       <r>    1.7160    0.0000 </r>
       <r>    1.7630    0.0000 </r>
      </set>
      <set comment="kpoint 172">
       <r>   -9.4099    1.0000 </r>
       <r>   -3.5727    0.1675 </r>
       <r>   -3.5725    0.1666 </r>
       <r>   -3.5725    0.1666 </r>
       <r>   -0.0849    0.0000 </r>
       <r>    0.1972    0.0000 </r>
       <r>    0.2651    0.0000 </r>
       <r>    0.3634    0.0000 </r>
       <r>    0.5243    0.0000 </r>
       <r>    0.6859    0.0000 </r>
       <r>    0.7315    0.0000 </r>
       <r>    0.8303    0.0000 </r>
       <r>    0.9156    0.0000 </r>
       <r>    0.9857    0.0000 </r>
       <r>    1.0553    0.0000 </r>
       <r>    1.1086    0.0000 </r>
       <r>    1.1310    0.0000 </r>
       <r>    1.1890    0.0000 </r>
       <r>    1.2317    0.0000 </r>
       <r>    1.3046    0.0000 </r>
       <r>    1.4726    0.0000 </r>
       <r>    1.6020    0.0000 </r>
       <r>    1.6292    0.0000 </r>
       <r>    1.7485    0.0000 </r>
      </set>
      <set comment="kpoint 173">
       <r>   -9.4099    1.0000 </r>
       <r>   -3.5727    0.1675 </r>
       <r>   -3.5725    0.1666 </r>
       <r>   -3.5725    0.1666 </r>
       <r>   -0.0694    0.0000 </r>
       <r>    0.2184    0.0000 </r>
       <r>    0.2890    0.0000 </r>
       <r>    0.3890    0.0000 </r>
       <r>    0.4348    0.0000 </r>
       <r>    0.5893    0.0000 </r>
       <r>    0.6328    0.0000 </r>
       <r>    0.7269    0.0000 </r>
       <r>    1.0121    0.0000 </r>
       <r>    1.0594    0.0000 </r>
       <r>    1.1359    0.0000 </r>
       <r>    1.1573    0.0000 </r>
       <r>    1.2221    0.0000 </r>
       <r>    1.2959    0.0000 </r>
       <r>    1.3098    0.0000 </r>
       <r>    1.3853    0.0000 </r>
       <r>    1.4166    0.0000 </r>
       <r>    1.5041    0.0000 </r>
       <r>    1.5433    0.0000 </r>
       <r>    1.6542    0.0000 </r>
      </set>
      <set comment="kpoint 174">
       <r>   -9.4099    1.0000 </r>
       <r>   -3.5727    0.1675 </r>
       <r>   -3.5726    0.1666 </r>
       <r>   -3.5725    0.1666 </r>
       <r>   -0.0513    0.0000 </r>
       <r>    0.2466    0.0000 </r>
       <r>    0.3225    0.0000 </r>
       <r>    0.3663    0.0000 </r>
       <r>    0.4261    0.0000 </r>
       <r>    0.5110    0.0000 </r>
       <r>    0.5484    0.0000 </r>
       <r>    0.6370    0.0000 </r>
       <r>    1.0432    0.0000 </r>
       <r>    1.1730    0.0000 </r>
       <r>    1.1815    0.0000 </r>
       <r>    1.2169    0.0000 </r>
       <r>    1.2971    0.0000 </r>
       <r>    1.3176    0.0000 </r>
       <r>    1.3965    0.0000 </r>
       <r>    1.4225    0.0000 </r>
       <r>    1.4517    0.0000 </r>
       <r>    1.5047    0.0000 </r>
       <r>    1.5676    0.0000 </r>
       <r>    1.5845    0.0000 </r>
      </set>
      <set comment="kpoint 175">
       <r>   -9.4099    1.0000 </r>
       <r>   -3.5727    0.1675 </r>
       <r>   -3.5726    0.1667 </r>
       <r>   -3.5725    0.1666 </r>
       <r>   -0.0383    0.0000 </r>
       <r>    0.2720    0.0000 </r>
       <r>    0.3256    0.0000 </r>
       <r>    0.3590    0.0000 </r>
       <r>    0.4550    0.0000 </r>
       <r>    0.4747    0.0000 </r>
       <r>    0.4895    0.0000 </r>
       <r>    0.5663    0.0000 </r>
       <r>    1.0707    0.0000 </r>
       <r>    1.2066    0.0000 </r>
       <r>    1.2143    0.0000 </r>
       <r>    1.2300    0.0000 </r>
       <r>    1.3408    0.0000 </r>
       <r>    1.3624    0.0000 </r>
       <r>    1.3750    0.0000 </r>
       <r>    1.4417    0.0000 </r>
       <r>    1.4948    0.0000 </r>
       <r>    1.5777    0.0000 </r>
       <r>    1.6064    0.0000 </r>
       <r>    1.6665    0.0000 </r>
      </set>
     </set>
    </set>
   </array>
  </eigenvalues>
  <separator name="orbital magnetization" >
   <v name="MAGDIPOLOUT">      0.00000000      0.00000000      0.00000000</v>
  </separator>
  <dos>
   <i name="efermi">     -3.60675880 </i>
   <total>
    <array>
     <dimension dim="1">gridpoints</dimension>
     <dimension dim="2">spin</dimension>
     <field>energy</field>
     <field>total</field>
     <field>integrated</field>
     <set>
      <set comment="spin 1">
       <r>    -9.9767     0.0000     0.0000 </r>
       <r>    -9.9352     0.0000     0.0000 </r>
       <r>    -9.8936     0.0000     0.0000 </r>
       <r>    -9.8520     0.0000     0.0000 </r>
       <r>    -9.8105     0.0000     0.0000 </r>
       <r>    -9.7689     0.0000     0.0000 </r>
       <r>    -9.7273     0.0000     0.0000 </r>
       <r>    -9.6858     0.0000     0.0000 </r>
       <r>    -9.6442     0.0000     0.0000 </r>
       <r>    -9.6026     0.0000     0.0000 </r>
       <r>    -9.5611     0.0005     0.0000 </r>
       <r>    -9.5195     0.0462     0.0019 </r>
       <r>    -9.4779     1.2612     0.0544 </r>
       <r>    -9.4363     9.6221     0.4543 </r>
       <r>    -9.3948    21.0898     1.3310 </r>
       <r>    -9.3532    13.4749     1.8911 </r>
       <r>    -9.3116     2.4882     1.9945 </r>
       <r>    -9.2701     0.1294     1.9999 </r>
       <r>    -9.2285     0.0018     2.0000 </r>
       <r>    -9.1869     0.0000     2.0000 </r>
       <r>    -9.1454     0.0000     2.0000 </r>
       <r>    -9.1038     0.0000     2.0000 </r>
       <r>    -9.0622     0.0000     2.0000 </r>
       <r>    -9.0207     0.0000     2.0000 </r>
       <r>    -8.9791     0.0000     2.0000 </r>
       <r>    -8.9375     0.0000     2.0000 </r>
       <r>    -8.8960     0.0000     2.0000 </r>
       <r>    -8.8544     0.0000     2.0000 </r>
       <r>    -8.8128     0.0000     2.0000 </r>
       <r>    -8.7713     0.0000     2.0000 </r>
       <r>    -8.7297     0.0000     2.0000 </r>
       <r>    -8.6881     0.0000     2.0000 </r>
       <r>    -8.6466     0.0000     2.0000 </r>
       <r>    -8.6050     0.0000     2.0000 </r>
       <r>    -8.5634     0.0000     2.0000 </r>
       <r>    -8.5219     0.0000     2.0000 </r>
       <r>    -8.4803     0.0000     2.0000 </r>
       <r>    -8.4387     0.0000     2.0000 </r>
       <r>    -8.3972     0.0000     2.0000 </r>
       <r>    -8.3556     0.0000     2.0000 </r>
       <r>    -8.3140     0.0000     2.0000 </r>
       <r>    -8.2724     0.0000     2.0000 </r>
       <r>    -8.2309     0.0000     2.0000 </r>
       <r>    -8.1893     0.0000     2.0000 </r>
       <r>    -8.1477     0.0000     2.0000 </r>
       <r>    -8.1062     0.0000     2.0000 </r>
       <r>    -8.0646     0.0000     2.0000 </r>
       <r>    -8.0230     0.0000     2.0000 </r>
       <r>    -7.9815     0.0000     2.0000 </r>
       <r>    -7.9399     0.0000     2.0000 </r>
       <r>    -7.8983     0.0000     2.0000 </r>
       <r>    -7.8568     0.0000     2.0000 </r>
       <r>    -7.8152     0.0000     2.0000 </r>
       <r>    -7.7736     0.0000     2.0000 </r>
       <r>    -7.7321     0.0000     2.0000 </r>
       <r>    -7.6905     0.0000     2.0000 </r>
       <r>    -7.6489     0.0000     2.0000 </r>
       <r>    -7.6074     0.0000     2.0000 </r>
       <r>    -7.5658     0.0000     2.0000 </r>
       <r>    -7.5242     0.0000     2.0000 </r>
       <r>    -7.4827     0.0000     2.0000 </r>
       <r>    -7.4411     0.0000     2.0000 </r>
       <r>    -7.3995     0.0000     2.0000 </r>
       <r>    -7.3580     0.0000     2.0000 </r>
       <r>    -7.3164     0.0000     2.0000 </r>
       <r>    -7.2748     0.0000     2.0000 </r>
       <r>    -7.2332     0.0000     2.0000 </r>
       <r>    -7.1917     0.0000     2.0000 </r>
       <r>    -7.1501     0.0000     2.0000 </r>
       <r>    -7.1085     0.0000     2.0000 </r>
       <r>    -7.0670     0.0000     2.0000 </r>
       <r>    -7.0254     0.0000     2.0000 </r>
       <r>    -6.9838     0.0000     2.0000 </r>
       <r>    -6.9423     0.0000     2.0000 </r>
       <r>    -6.9007     0.0000     2.0000 </r>
       <r>    -6.8591     0.0000     2.0000 </r>
       <r>    -6.8176     0.0000     2.0000 </r>
       <r>    -6.7760     0.0000     2.0000 </r>
       <r>    -6.7344     0.0000     2.0000 </r>
       <r>    -6.6929     0.0000     2.0000 </r>
       <r>    -6.6513     0.0000     2.0000 </r>
       <r>    -6.6097     0.0000     2.0000 </r>
       <r>    -6.5682     0.0000     2.0000 </r>
       <r>    -6.5266     0.0000     2.0000 </r>
       <r>    -6.4850     0.0000     2.0000 </r>
       <r>    -6.4435     0.0000     2.0000 </r>
       <r>    -6.4019     0.0000     2.0000 </r>
       <r>    -6.3603     0.0000     2.0000 </r>
       <r>    -6.3188     0.0000     2.0000 </r>
       <r>    -6.2772     0.0000     2.0000 </r>
       <r>    -6.2356     0.0000     2.0000 </r>
       <r>    -6.1941     0.0000     2.0000 </r>
       <r>    -6.1525     0.0000     2.0000 </r>
       <r>    -6.1109     0.0000     2.0000 </r>
       <r>    -6.0693     0.0000     2.0000 </r>
       <r>    -6.0278     0.0000     2.0000 </r>
       <r>    -5.9862     0.0000     2.0000 </r>
       <r>    -5.9446     0.0000     2.0000 </r>
       <r>    -5.9031     0.0000     2.0000 </r>
       <r>    -5.8615     0.0000     2.0000 </r>
       <r>    -5.8199     0.0000     2.0000 </r>
       <r>    -5.7784     0.0000     2.0000 </r>
       <r>    -5.7368     0.0000     2.0000 </r>
       <r>    -5.6952     0.0000     2.0000 </r>
       <r>    -5.6537     0.0000     2.0000 </r>
       <r>    -5.6121     0.0000     2.0000 </r>
       <r>    -5.5705     0.0000     2.0000 </r>
       <r>    -5.5290     0.0000     2.0000 </r>
       <r>    -5.4874     0.0000     2.0000 </r>
       <r>    -5.4458     0.0000     2.0000 </r>
       <r>    -5.4043     0.0000     2.0000 </r>
       <r>    -5.3627     0.0000     2.0000 </r>
       <r>    -5.3211     0.0000     2.0000 </r>
       <r>    -5.2796     0.0000     2.0000 </r>
       <r>    -5.2380     0.0000     2.0000 </r>
       <r>    -5.1964     0.0000     2.0000 </r>
       <r>    -5.1549     0.0000     2.0000 </r>
       <r>    -5.1133     0.0000     2.0000 </r>
       <r>    -5.0717     0.0000     2.0000 </r>
       <r>    -5.0302     0.0000     2.0000 </r>
       <r>    -4.9886     0.0000     2.0000 </r>
       <r>    -4.9470     0.0000     2.0000 </r>
       <r>    -4.9054     0.0000     2.0000 </r>
       <r>    -4.8639     0.0000     2.0000 </r>
       <r>    -4.8223     0.0000     2.0000 </r>
       <r>    -4.7807     0.0000     2.0000 </r>
       <r>    -4.7392     0.0000     2.0000 </r>
       <r>    -4.6976     0.0000     2.0000 </r>
       <r>    -4.6560     0.0000     2.0000 </r>
       <r>    -4.6145     0.0000     2.0000 </r>
       <r>    -4.5729     0.0000     2.0000 </r>
       <r>    -4.5313     0.0000     2.0000 </r>
       <r>    -4.4898     0.0000     2.0000 </r>
       <r>    -4.4482     0.0000     2.0000 </r>
       <r>    -4.4066     0.0000     2.0000 </r>
       <r>    -4.3651     0.0000     2.0000 </r>
       <r>    -4.3235     0.0000     2.0000 </r>
       <r>    -4.2819     0.0000     2.0000 </r>
       <r>    -4.2404     0.0000     2.0000 </r>
       <r>    -4.1988     0.0000     2.0000 </r>
       <r>    -4.1572     0.0000     2.0000 </r>
       <r>    -4.1157     0.0000     2.0000 </r>
       <r>    -4.0741     0.0000     2.0000 </r>
       <r>    -4.0325     0.0000     2.0000 </r>
       <r>    -3.9910     0.0000     2.0000 </r>
       <r>    -3.9494     0.0000     2.0000 </r>
       <r>    -3.9078     0.0000     2.0000 </r>
       <r>    -3.8663     0.0000     2.0000 </r>
       <r>    -3.8247     0.0000     2.0000 </r>
       <r>    -3.7831     0.0000     2.0000 </r>
       <r>    -3.7415     0.0001     2.0000 </r>
       <r>    -3.7000     0.0225     2.0009 </r>
       <r>    -3.6584     1.0720     2.0455 </r>
       <r>    -3.6168    14.0850     2.6310 </r>
       <r>    -3.5753    52.5648     4.8160 </r>
       <r>    -3.5337    56.9767     7.1844 </r>
       <r>    -3.4921    17.9658     7.9312 </r>
       <r>    -3.4506     1.6150     7.9983 </r>
       <r>    -3.4090     0.0402     8.0000 </r>
       <r>    -3.3674     0.0003     8.0000 </r>
       <r>    -3.3259     0.0000     8.0000 </r>
       <r>    -3.2843     0.0000     8.0000 </r>
       <r>    -3.2427     0.0000     8.0000 </r>
       <r>    -3.2012     0.0000     8.0000 </r>
       <r>    -3.1596     0.0000     8.0000 </r>
       <r>    -3.1180     0.0000     8.0000 </r>
       <r>    -3.0765     0.0000     8.0000 </r>
       <r>    -3.0349     0.0000     8.0000 </r>
       <r>    -2.9933     0.0000     8.0000 </r>
       <r>    -2.9518     0.0000     8.0000 </r>
       <r>    -2.9102     0.0000     8.0000 </r>
       <r>    -2.8686     0.0000     8.0000 </r>
       <r>    -2.8271     0.0000     8.0000 </r>
       <r>    -2.7855     0.0000     8.0000 </r>
       <r>    -2.7439     0.0000     8.0000 </r>
       <r>    -2.7024     0.0000     8.0000 </r>
       <r>    -2.6608     0.0000     8.0000 </r>
       <r>    -2.6192     0.0000     8.0000 </r>
       <r>    -2.5776     0.0000     8.0000 </r>
       <r>    -2.5361     0.0000     8.0000 </r>
       <r>    -2.4945     0.0000     8.0000 </r>
       <r>    -2.4529     0.0000     8.0000 </r>
       <r>    -2.4114     0.0000     8.0000 </r>
       <r>    -2.3698     0.0000     8.0000 </r>
       <r>    -2.3282     0.0000     8.0000 </r>
       <r>    -2.2867     0.0000     8.0000 </r>
       <r>    -2.2451     0.0000     8.0000 </r>
       <r>    -2.2035     0.0000     8.0000 </r>
       <r>    -2.1620     0.0000     8.0000 </r>
       <r>    -2.1204     0.0000     8.0000 </r>
       <r>    -2.0788     0.0000     8.0000 </r>
       <r>    -2.0373     0.0000     8.0000 </r>
       <r>    -1.9957     0.0000     8.0000 </r>
       <r>    -1.9541     0.0000     8.0000 </r>
       <r>    -1.9126     0.0000     8.0000 </r>
       <r>    -1.8710     0.0000     8.0000 </r>
       <r>    -1.8294     0.0000     8.0000 </r>
       <r>    -1.7879     0.0000     8.0000 </r>
       <r>    -1.7463     0.0000     8.0000 </r>
       <r>    -1.7047     0.0000     8.0000 </r>
       <r>    -1.6632     0.0000     8.0000 </r>
       <r>    -1.6216     0.0000     8.0000 </r>
       <r>    -1.5800     0.0000     8.0000 </r>
       <r>    -1.5384     0.0000     8.0000 </r>
       <r>    -1.4969     0.0000     8.0000 </r>
       <r>    -1.4553     0.0000     8.0000 </r>
       <r>    -1.4137     0.0000     8.0000 </r>
       <r>    -1.3722     0.0000     8.0000 </r>
       <r>    -1.3306     0.0000     8.0000 </r>
       <r>    -1.2890     0.0000     8.0000 </r>
       <r>    -1.2475     0.0000     8.0000 </r>
       <r>    -1.2059     0.0000     8.0000 </r>
       <r>    -1.1643     0.0000     8.0000 </r>
       <r>    -1.1228     0.0000     8.0000 </r>
       <r>    -1.0812     0.0000     8.0000 </r>
       <r>    -1.0396     0.0000     8.0000 </r>
       <r>    -0.9981     0.0000     8.0000 </r>
       <r>    -0.9565     0.0000     8.0000 </r>
       <r>    -0.9149     0.0000     8.0000 </r>
       <r>    -0.8734     0.0000     8.0000 </r>
       <r>    -0.8318     0.0000     8.0000 </r>
       <r>    -0.7902     0.0000     8.0000 </r>
       <r>    -0.7487     0.0000     8.0000 </r>
       <r>    -0.7071     0.0000     8.0000 </r>
       <r>    -0.6655     0.0000     8.0000 </r>
       <r>    -0.6240     0.0000     8.0000 </r>
       <r>    -0.5824     0.0000     8.0000 </r>
       <r>    -0.5408     0.0000     8.0000 </r>
       <r>    -0.4993     0.0000     8.0000 </r>
       <r>    -0.4577     0.0000     8.0000 </r>
       <r>    -0.4161     0.0000     8.0000 </r>
       <r>    -0.3745     0.0007     8.0000 </r>
       <r>    -0.3330     0.0345     8.0015 </r>
       <r>    -0.2914     0.5300     8.0235 </r>
       <r>    -0.2498     3.0313     8.1495 </r>
       <r>    -0.2083     7.6832     8.4689 </r>
       <r>    -0.1667    10.7072     8.9140 </r>
       <r>    -0.1251    10.4246     9.3473 </r>
       <r>    -0.0836     8.5104     9.7010 </r>
       <r>    -0.0420     5.1602     9.9155 </r>
       <r>    -0.0004     1.7862     9.9898 </r>
       <r>     0.0411     0.6618    10.0173 </r>
       <r>     0.0827     2.0861    10.1040 </r>
       <r>     0.1243     5.7281    10.3421 </r>
       <r>     0.1658    10.3438    10.7721 </r>
       <r>     0.2074    13.9755    11.3530 </r>
       <r>     0.2490    15.6118    12.0020 </r>
       <r>     0.2905    15.7811    12.6580 </r>
       <r>     0.3321    15.9199    13.3197 </r>
       <r>     0.3737    16.2113    13.9936 </r>
       <r>     0.4152    16.5203    14.6803 </r>
       <r>     0.4568    17.5741    15.4108 </r>
       <r>     0.4984    18.4880    16.1793 </r>
       <r>     0.5399    18.4890    16.9479 </r>
       <r>     0.5815    18.9800    17.7368 </r>
       <r>     0.6231    19.8939    18.5638 </r>
       <r>     0.6646    20.3662    19.4103 </r>
       <r>     0.7062    21.0064    20.2835 </r>
       <r>     0.7478    22.4088    21.2150 </r>
       <r>     0.7894    22.4181    22.1469 </r>
       <r>     0.8309    21.8747    23.0562 </r>
       <r>     0.8725    23.3265    24.0258 </r>
       <r>     0.9141    24.5349    25.0457 </r>
       <r>     0.9556    24.2362    26.0531 </r>
       <r>     0.9972    24.8592    27.0865 </r>
       <r>     1.0388    25.9043    28.1633 </r>
       <r>     1.0803    26.0142    29.2446 </r>
       <r>     1.1219    26.0769    30.3286 </r>
       <r>     1.1635    26.8279    31.4438 </r>
       <r>     1.2050    27.7194    32.5960 </r>
       <r>     1.2466    27.3333    33.7322 </r>
       <r>     1.2882    27.4885    34.8748 </r>
       <r>     1.3297    28.5609    36.0620 </r>
       <r>     1.3713    28.6195    37.2517 </r>
       <r>     1.4129    28.3196    38.4289 </r>
       <r>     1.4544    29.3338    39.6482 </r>
       <r>     1.4960    30.8952    40.9325 </r>
       <r>     1.5376    30.0437    42.1813 </r>
       <r>     1.5791    29.5763    43.4107 </r>
       <r>     1.6207    30.0855    44.6613 </r>
       <r>     1.6623    27.7276    45.8139 </r>
       <r>     1.7038    21.2579    46.6976 </r>
       <r>     1.7454    14.0834    47.2830 </r>
       <r>     1.7870     8.3419    47.6297 </r>
       <r>     1.8285     4.8079    47.8296 </r>
       <r>     1.8701     2.5786    47.9368 </r>
       <r>     1.9117     1.0931    47.9822 </r>
       <r>     1.9533     0.3474    47.9966 </r>
       <r>     1.9948     0.0733    47.9997 </r>
       <r>     2.0364     0.0071    48.0000 </r>
       <r>     2.0780     0.0002    48.0000 </r>
       <r>     2.1195     0.0000    48.0000 </r>
       <r>     2.1611     0.0000    48.0000 </r>
       <r>     2.2027     0.0000    48.0000 </r>
       <r>     2.2442     0.0000    48.0000 </r>
       <r>     2.2858     0.0000    48.0000 </r>
       <r>     2.3274     0.0000    48.0000 </r>
       <r>     2.3689     0.0000    48.0000 </r>
       <r>     2.4105     0.0000    48.0000 </r>
       <r>     2.4521     0.0000    48.0000 </r>
       <r>     2.4936     0.0000    48.0000 </r>
      </set>
     </set>
    </array>
   </total>
  </dos>
 </calculation>
 <structure name="finalpos" >
  <crystal>
   <varray name="basis" >
    <v>      15.00000000       0.00000000       0.00000000 </v>
    <v>       0.00000000      12.50000000       0.00000000 </v>
    <v>       0.00000000       0.00000000      18.00000000 </v>
   </varray>
   <i name="volume">   3375.00000000 </i>
   <varray name="rec_basis" >
    <v>       0.06666667       0.00000000       0.00000000 </v>
    <v>       0.00000000       0.08000000       0.00000000 </v>
    <v>       0.00000000       0.00000000       0.05555556 </v>
   </varray>
  </crystal>
  <varray name="positions" >
   <v>       0.52123000       0.54500000       0.63796000 </v>
  </varray>
 </structure>
</modeling>
