  14  14   0   0
  0.1021960E+02  0.5697000E-09  0.4047900E-09  0.6204200E-09  0.5000000E-15
  1.000000000000000E-004
  CAR 
 Kpoints                                 
     18.00661511    -14.19411560  301      1.88441219      1.00000000
    -14.194  0.0000E+00  0.0000E+00
    -14.087  0.0000E+00  0.0000E+00
    -13.979  0.0000E+00  0.0000E+00
    -13.872  0.0000E+00  0.0000E+00
    -13.765  0.0000E+00  0.0000E+00
    -13.657  0.0000E+00  0.0000E+00
    -13.550  0.0000E+00  0.0000E+00
    -13.443  0.0000E+00  0.0000E+00
    -13.335  0.0000E+00  0.0000E+00
    -13.228  0.0000E+00  0.0000E+00
    -13.121  0.0000E+00  0.0000E+00
    -13.013  0.2063E-16  0.2214E-17
    -12.906  0.1478E-07  0.1586E-08
    -12.799  0.2567E-02  0.2756E-03
    -12.691  0.4455E+00  0.4809E-01
    -12.584  0.2307E+01  0.2957E+00
    -12.477  0.3539E+01  0.6755E+00
    -12.369  0.4351E+01  0.1143E+01
    -12.262  0.3548E+01  0.1523E+01
    -12.155  0.2839E+01  0.1828E+01
    -12.047  0.2614E+01  0.2109E+01
    -11.940  0.2596E+01  0.2388E+01
    -11.833  0.2758E+01  0.2684E+01
    -11.725  0.3351E+01  0.3043E+01
    -11.618  0.3631E+01  0.3433E+01
    -11.511  0.3111E+01  0.3767E+01
    -11.403  0.1711E+01  0.3950E+01
    -11.296  0.4530E+00  0.3999E+01
    -11.189  0.8777E-02  0.4000E+01
    -11.081  0.3634E-06  0.4000E+01
    -10.974  0.4314E-14  0.4000E+01
    -10.867  0.0000E+00  0.4000E+01
    -10.759  0.0000E+00  0.4000E+01
    -10.652  0.0000E+00  0.4000E+01
    -10.545  0.0000E+00  0.4000E+01
    -10.437  0.0000E+00  0.4000E+01
    -10.330  0.0000E+00  0.4000E+01
    -10.223  0.0000E+00  0.4000E+01
    -10.115  0.0000E+00  0.4000E+01
    -10.008  0.0000E+00  0.4000E+01
     -9.901  0.0000E+00  0.4000E+01
     -9.793  0.0000E+00  0.4000E+01
     -9.686  0.0000E+00  0.4000E+01
     -9.579  0.0000E+00  0.4000E+01
     -9.471  0.0000E+00  0.4000E+01
     -9.364  0.0000E+00  0.4000E+01
     -9.257  0.0000E+00  0.4000E+01
     -9.149  0.0000E+00  0.4000E+01
     -9.042  0.4401E-09  0.4000E+01
     -8.935  0.4704E-03  0.4000E+01
     -8.827  0.2595E+00  0.4028E+01
     -8.720  0.2056E+01  0.4249E+01
     -8.613  0.5251E+01  0.4812E+01
     -8.505  0.7018E+01  0.5565E+01
     -8.398  0.6297E+01  0.6241E+01
     -8.291  0.5315E+01  0.6812E+01
     -8.183  0.4888E+01  0.7336E+01
     -8.076  0.3844E+01  0.7749E+01
     -7.969  0.1700E+01  0.7932E+01
     -7.861  0.5859E+00  0.7994E+01
     -7.754  0.5135E-01  0.8000E+01
     -7.647  0.4514E-04  0.8000E+01
     -7.539  0.1857E-10  0.8000E+01
     -7.432  0.0000E+00  0.8000E+01
     -7.325  0.0000E+00  0.8000E+01
     -7.217  0.1435E-14  0.8000E+01
     -7.110  0.1592E-06  0.8000E+01
     -7.003  0.3237E-02  0.8000E+01
     -6.895  0.8672E-01  0.8010E+01
     -6.788  0.3059E+00  0.8042E+01
     -6.681  0.4003E+00  0.8085E+01
     -6.573  0.7579E+00  0.8167E+01
     -6.466  0.8871E+00  0.8262E+01
     -6.359  0.1338E+01  0.8406E+01
     -6.251  0.2200E+01  0.8642E+01
     -6.144  0.2933E+01  0.8957E+01
     -6.037  0.3830E+01  0.9368E+01
     -5.929  0.4053E+01  0.9803E+01
     -5.822  0.4035E+01  0.1024E+02
     -5.715  0.4105E+01  0.1068E+02
     -5.607  0.3989E+01  0.1110E+02
     -5.500  0.4084E+01  0.1154E+02
     -5.393  0.4507E+01  0.1203E+02
     -5.285  0.4849E+01  0.1255E+02
     -5.178  0.4111E+01  0.1299E+02
     -5.071  0.4293E+01  0.1345E+02
     -4.963  0.3281E+01  0.1380E+02
     -4.856  0.2348E+01  0.1405E+02
     -4.749  0.2527E+01  0.1432E+02
     -4.641  0.2922E+01  0.1464E+02
     -4.534  0.3603E+01  0.1502E+02
     -4.427  0.3592E+01  0.1541E+02
     -4.319  0.2812E+01  0.1571E+02
     -4.212  0.3200E+01  0.1606E+02
     -4.105  0.3027E+01  0.1638E+02
     -3.997  0.2615E+01  0.1666E+02
     -3.890  0.3106E+01  0.1699E+02
     -3.783  0.3060E+01  0.1732E+02
     -3.675  0.3077E+01  0.1765E+02
     -3.568  0.2647E+01  0.1794E+02
     -3.461  0.2537E+01  0.1821E+02
     -3.353  0.3072E+01  0.1854E+02
     -3.246  0.2858E+01  0.1885E+02
     -3.139  0.2678E+01  0.1913E+02
     -3.031  0.2759E+01  0.1943E+02
     -2.924  0.3073E+01  0.1976E+02
     -2.817  0.2860E+01  0.2007E+02
     -2.709  0.2657E+01  0.2035E+02
     -2.602  0.2374E+01  0.2061E+02
     -2.495  0.3036E+01  0.2093E+02
     -2.387  0.3035E+01  0.2126E+02
     -2.280  0.3758E+01  0.2166E+02
     -2.173  0.3670E+01  0.2206E+02
     -2.065  0.3261E+01  0.2241E+02
     -1.958  0.3817E+01  0.2282E+02
     -1.851  0.4841E+01  0.2334E+02
     -1.743  0.5786E+01  0.2396E+02
     -1.636  0.5929E+01  0.2459E+02
     -1.528  0.5235E+01  0.2515E+02
     -1.421  0.6636E+01  0.2587E+02
     -1.314  0.6389E+01  0.2655E+02
     -1.206  0.4359E+01  0.2702E+02
     -1.099  0.5187E+01  0.2758E+02
     -0.992  0.4325E+01  0.2804E+02
     -0.884  0.3032E+01  0.2837E+02
     -0.777  0.2168E+01  0.2860E+02
     -0.670  0.3051E+01  0.2893E+02
     -0.562  0.4981E+01  0.2946E+02
     -0.455  0.6287E+01  0.3014E+02
     -0.348  0.6172E+01  0.3080E+02
     -0.240  0.6046E+01  0.3145E+02
     -0.133  0.6900E+01  0.3219E+02
     -0.026  0.7014E+01  0.3294E+02
      0.082  0.6127E+01  0.3360E+02
      0.189  0.6753E+01  0.3432E+02
      0.296  0.8794E+01  0.3527E+02
      0.404  0.7975E+01  0.3612E+02
      0.511  0.8530E+01  0.3704E+02
      0.618  0.5007E+01  0.3758E+02
      0.726  0.3162E+01  0.3792E+02
      0.833  0.3193E+01  0.3826E+02
      0.940  0.3184E+01  0.3860E+02
      1.048  0.2998E+01  0.3892E+02
      1.155  0.3633E+01  0.3931E+02
      1.262  0.4548E+01  0.3980E+02
      1.370  0.3400E+01  0.4017E+02
      1.477  0.3794E+01  0.4057E+02
      1.584  0.3938E+01  0.4100E+02
      1.692  0.3480E+01  0.4137E+02
      1.799  0.3401E+01  0.4173E+02
      1.906  0.3144E+01  0.4207E+02
      2.014  0.3062E+01  0.4240E+02
      2.121  0.2297E+01  0.4265E+02
      2.228  0.1985E+01  0.4286E+02
      2.336  0.1916E+01  0.4307E+02
      2.443  0.1778E+01  0.4326E+02
      2.550  0.1257E+01  0.4339E+02
      2.658  0.6034E+00  0.4346E+02
      2.765  0.5313E+00  0.4351E+02
      2.872  0.3392E+00  0.4355E+02
      2.980  0.4668E+00  0.4360E+02
      3.087  0.8394E+00  0.4369E+02
      3.194  0.6028E+00  0.4375E+02
      3.302  0.2870E+00  0.4379E+02
      3.409  0.2667E+00  0.4381E+02
      3.516  0.3021E+00  0.4385E+02
      3.624  0.4348E+00  0.4389E+02
      3.731  0.4001E+00  0.4394E+02
      3.838  0.2797E+00  0.4397E+02
      3.946  0.1553E+00  0.4398E+02
      4.053  0.1463E+00  0.4400E+02
      4.160  0.1593E-01  0.4400E+02
      4.268  0.4456E-01  0.4400E+02
      4.375  0.2266E+00  0.4403E+02
      4.482  0.3601E+00  0.4407E+02
      4.590  0.5047E+00  0.4412E+02
      4.697  0.7108E+00  0.4420E+02
      4.804  0.8551E+00  0.4429E+02
      4.912  0.8359E+00  0.4438E+02
      5.019  0.9590E+00  0.4448E+02
      5.126  0.1184E+01  0.4461E+02
      5.234  0.1287E+01  0.4475E+02
      5.341  0.1730E+01  0.4493E+02
      5.448  0.2073E+01  0.4516E+02
      5.556  0.2517E+01  0.4543E+02
      5.663  0.3032E+01  0.4575E+02
      5.770  0.3298E+01  0.4611E+02
      5.878  0.3494E+01  0.4648E+02
      5.985  0.4137E+01  0.4692E+02
      6.092  0.4574E+01  0.4742E+02
      6.200  0.4679E+01  0.4792E+02
      6.307  0.4102E+01  0.4836E+02
      6.414  0.4238E+01  0.4881E+02
      6.522  0.4155E+01  0.4926E+02
      6.629  0.4233E+01  0.4971E+02
      6.736  0.3486E+01  0.5009E+02
      6.844  0.3855E+01  0.5050E+02
      6.951  0.4461E+01  0.5098E+02
      7.058  0.4653E+01  0.5148E+02
      7.166  0.5306E+01  0.5205E+02
      7.273  0.4713E+01  0.5256E+02
      7.380  0.4924E+01  0.5308E+02
      7.488  0.4581E+01  0.5358E+02
      7.595  0.3848E+01  0.5399E+02
      7.702  0.3537E+01  0.5437E+02
      7.810  0.3104E+01  0.5470E+02
      7.917  0.3225E+01  0.5505E+02
      8.024  0.3516E+01  0.5542E+02
      8.132  0.3505E+01  0.5580E+02
      8.239  0.3711E+01  0.5620E+02
      8.346  0.3908E+01  0.5662E+02
      8.454  0.4255E+01  0.5708E+02
      8.561  0.4343E+01  0.5754E+02
      8.668  0.4180E+01  0.5799E+02
      8.776  0.4329E+01  0.5845E+02
      8.883  0.5522E+01  0.5905E+02
      8.990  0.4654E+01  0.5955E+02
      9.098  0.5510E+01  0.6014E+02
      9.205  0.5166E+01  0.6069E+02
      9.312  0.5223E+01  0.6125E+02
      9.420  0.4029E+01  0.6169E+02
      9.527  0.4490E+01  0.6217E+02
      9.634  0.5423E+01  0.6275E+02
      9.742  0.5199E+01  0.6331E+02
      9.849  0.4491E+01  0.6379E+02
      9.956  0.5216E+01  0.6435E+02
     10.064  0.4251E+01  0.6481E+02
     10.171  0.4051E+01  0.6524E+02
     10.278  0.4176E+01  0.6569E+02
     10.386  0.4972E+01  0.6622E+02
     10.493  0.5900E+01  0.6686E+02
     10.600  0.4854E+01  0.6738E+02
     10.708  0.4276E+01  0.6784E+02
     10.815  0.4464E+01  0.6832E+02
     10.922  0.3101E+01  0.6865E+02
     11.030  0.4498E+01  0.6913E+02
     11.137  0.5404E+01  0.6971E+02
     11.244  0.6344E+01  0.7039E+02
     11.352  0.5767E+01  0.7101E+02
     11.459  0.5039E+01  0.7155E+02
     11.566  0.4986E+01  0.7209E+02
     11.674  0.4536E+01  0.7257E+02
     11.781  0.4534E+01  0.7306E+02
     11.888  0.5004E+01  0.7360E+02
     11.996  0.6145E+01  0.7426E+02
     12.103  0.6316E+01  0.7494E+02
     12.210  0.5230E+01  0.7550E+02
     12.318  0.5182E+01  0.7605E+02
     12.425  0.6047E+01  0.7670E+02
     12.532  0.5769E+01  0.7732E+02
     12.640  0.5447E+01  0.7791E+02
     12.747  0.6244E+01  0.7858E+02
     12.854  0.5618E+01  0.7918E+02
     12.962  0.6323E+01  0.7986E+02
     13.069  0.5787E+01  0.8048E+02
     13.177  0.6077E+01  0.8113E+02
     13.284  0.6106E+01  0.8179E+02
     13.391  0.5664E+01  0.8239E+02
     13.499  0.5596E+01  0.8300E+02
     13.606  0.5360E+01  0.8357E+02
     13.713  0.5187E+01  0.8413E+02
     13.821  0.5644E+01  0.8473E+02
     13.928  0.5781E+01  0.8535E+02
     14.035  0.5442E+01  0.8594E+02
     14.143  0.5201E+01  0.8650E+02
     14.250  0.4768E+01  0.8701E+02
     14.357  0.5149E+01  0.8756E+02
     14.465  0.4836E+01  0.8808E+02
     14.572  0.5181E+01  0.8864E+02
     14.679  0.5176E+01  0.8919E+02
     14.787  0.4510E+01  0.8968E+02
     14.894  0.4337E+01  0.9014E+02
     15.001  0.5506E+01  0.9073E+02
     15.109  0.6001E+01  0.9138E+02
     15.216  0.5875E+01  0.9201E+02
     15.323  0.5867E+01  0.9264E+02
     15.431  0.5730E+01  0.9325E+02
     15.538  0.6036E+01  0.9390E+02
     15.645  0.5467E+01  0.9449E+02
     15.753  0.4288E+01  0.9495E+02
     15.860  0.2289E+01  0.9519E+02
     15.967  0.2246E+01  0.9543E+02
     16.075  0.1676E+01  0.9561E+02
     16.182  0.1157E+01  0.9574E+02
     16.289  0.9759E+00  0.9584E+02
     16.397  0.8537E+00  0.9593E+02
     16.504  0.5227E+00  0.9599E+02
     16.611  0.9800E-01  0.9600E+02
     16.719  0.1528E-02  0.9600E+02
     16.826  0.1806E-07  0.9600E+02
     16.933  0.3536E-16  0.9600E+02
     17.041  0.0000E+00  0.9600E+02
     17.148  0.0000E+00  0.9600E+02
     17.255  0.0000E+00  0.9600E+02
     17.363  0.0000E+00  0.9600E+02
     17.470  0.0000E+00  0.9600E+02
     17.577  0.0000E+00  0.9600E+02
     17.685  0.0000E+00  0.9600E+02
     17.792  0.0000E+00  0.9600E+02
     17.899  0.0000E+00  0.9600E+02
     18.007  0.0000E+00  0.9600E+02
