       N       E                     dE             d eps       ncg     rms          rms(c)
DAV:   1     0.835742421988E+01    0.83574E+01   -0.35404E+02  8400   0.426E+01
