    1    1    1    1
  0.3375000E+04  0.1500000E-08  0.1250000E-08  0.1800000E-08  0.5000000E-15
  1.000000000000000E-004
  CAR 
 Kpoints                                 
      3    175      8
 
  0.5000000E-01  0.3571429E-01  0.0000000E+00  0.3174603E-02
      1         -9.409673   1.000000
      2         -3.572617   0.166734
      3         -3.572608   0.166668
      4         -3.572494   0.165867
      5         -0.261680   0.000000
      6          0.295724   0.000000
      7          0.310034   0.000000
      8          0.439945   0.000000
 
  0.1500000E+00  0.3571429E-01  0.0000000E+00  0.3174603E-02
      1         -9.409674   1.000000
      2         -3.572618   0.166737
      3         -3.572613   0.166700
      4         -3.572494   0.165867
      5         -0.251827   0.000000
      6          0.269458   0.000000
      7          0.321263   0.000000
      8          0.375676   0.000000
 
  0.2500000E+00  0.3571429E-01  0.0000000E+00  0.3174603E-02
      1         -9.409673   1.000000
      2         -3.572618   0.166736
      3         -3.572616   0.166723
      4         -3.572494   0.165867
      5         -0.233681   0.000000
      6          0.199383   0.000000
      7          0.342876   0.000000
      8          0.378151   0.000000
 
  0.3500000E+00  0.3571429E-01  0.0000000E+00  0.3174603E-02
      1         -9.409673   1.000000
      2         -3.572621   0.166759
      3         -3.572616   0.166727
      4         -3.572495   0.165871
      5         -0.211491   0.000000
      6          0.131617   0.000000
      7          0.371974   0.000000
      8          0.409672   0.000000
 
  0.4500000E+00  0.3571429E-01  0.0000000E+00  0.3174603E-02
      1         -9.409674   1.000000
      2         -3.572624   0.166780
      3         -3.572617   0.166730
      4         -3.572495   0.165872
      5         -0.194463   0.000000
      6          0.090502   0.000000
      7          0.398432   0.000000
      8          0.448659   0.000000
 
  0.5000000E-01  0.1071429E+00  0.0000000E+00  0.3174603E-02
      1         -9.409674   1.000000
      2         -3.572616   0.166722
      3         -3.572607   0.166659
      4         -3.572518   0.166033
      5         -0.252552   0.000000
      6          0.303819   0.000000
      7          0.319006   0.000000
      8          0.448812   0.000000
 
  0.1500000E+00  0.1071429E+00  0.0000000E+00  0.3174603E-02
      1         -9.409675   1.000000
      2         -3.572616   0.166725
      3         -3.572611   0.166690
      4         -3.572518   0.166033
      5         -0.242714   0.000000
      6          0.277941   0.000000
      7          0.330212   0.000000
      8          0.384627   0.000000
 
  0.2500000E+00  0.1071429E+00  0.0000000E+00  0.3174603E-02
      1         -9.409674   1.000000
      2         -3.572616   0.166723
      3         -3.572614   0.166714
      4         -3.572517   0.166025
      5         -0.224598   0.000000
      6          0.208430   0.000000
      7          0.351771   0.000000
      8          0.386737   0.000000
 
  0.3500000E+00  0.1071429E+00  0.0000000E+00  0.3174603E-02
      1         -9.409673   1.000000
      2         -3.572620   0.166751
      3         -3.572615   0.166716
      4         -3.572516   0.166021
      5         -0.202459   0.000000
      6          0.140904   0.000000
      7          0.380763   0.000000
      8          0.418125   0.000000
 
  0.4500000E+00  0.1071429E+00  0.0000000E+00  0.3174603E-02
      1         -9.409672   1.000000
      2         -3.572621   0.166762
      3         -3.572615   0.166715
      4         -3.572516   0.166019
      5         -0.185480   0.000000
      6          0.099904   0.000000
      7          0.407061   0.000000
      8          0.456993   0.000000
 
  0.5000000E-01  0.1785714E+00  0.0000000E+00  0.3174603E-02
      1         -9.409674   1.000000
      2         -3.572613   0.166705
      3         -3.572604   0.166638
      4         -3.572558   0.166316
      5         -0.234610   0.000000
      6          0.316594   0.000000
      7          0.336839   0.000000
      8          0.462212   0.000000
 
  0.1500000E+00  0.1785714E+00  0.0000000E+00  0.3174603E-02
      1         -9.409673   1.000000
      2         -3.572612   0.166700
      3         -3.572607   0.166659
      4         -3.572557   0.166310
      5         -0.224808   0.000000
      6          0.293071   0.000000
      7          0.347995   0.000000
      8          0.400947   0.000000
 
  0.2500000E+00  0.1785714E+00  0.0000000E+00  0.3174603E-02
      1         -9.409674   1.000000
      2         -3.572613   0.166702
      3         -3.572612   0.166697
      4         -3.572557   0.166311
      5         -0.206769   0.000000
      6          0.226067   0.000000
      7          0.369437   0.000000
      8          0.400583   0.000000
 
  0.3500000E+00  0.1785714E+00  0.0000000E+00  0.3174603E-02
      1         -9.409673   1.000000
      2         -3.572616   0.166725
      3         -3.572612   0.166694
      4         -3.572557   0.166306
      5         -0.184752   0.000000
      6          0.159327   0.000000
      7          0.398202   0.000000
      8          0.430775   0.000000
 
  0.4500000E+00  0.1785714E+00  0.0000000E+00  0.3174603E-02
      1         -9.409672   1.000000
      2         -3.572618   0.166742
      3         -3.572612   0.166695
      4         -3.572557   0.166307
      5         -0.167899   0.000000
      6          0.118647   0.000000
      7          0.424159   0.000000
      8          0.467717   0.000000
 
  0.5000000E-01  0.2500000E+00  0.0000000E+00  0.3174603E-02
      1         -9.409673   1.000000
      2         -3.572608   0.166672
      3         -3.572607   0.166661
      4         -3.572600   0.166610
      5         -0.208652   0.000000
      6          0.307927   0.000000
      7          0.363230   0.000000
      8          0.400705   0.000000
 
  0.1500000E+00  0.2500000E+00  0.0000000E+00  0.3174603E-02
      1         -9.409673   1.000000
      2         -3.572609   0.166672
      3         -3.572608   0.166666
      4         -3.572603   0.166631
      5         -0.198920   0.000000
      6          0.300890   0.000000
      7          0.374299   0.000000
      8          0.384675   0.000000
 
  0.2500000E+00  0.2500000E+00  0.0000000E+00  0.3174603E-02
      1         -9.409673   1.000000
      2         -3.572609   0.166674
      3         -3.572608   0.166669
      4         -3.572607   0.166662
      5         -0.181037   0.000000
      6          0.250100   0.000000
      7          0.374930   0.000000
      8          0.395538   0.000000
 
  0.3500000E+00  0.2500000E+00  0.0000000E+00  0.3174603E-02
      1         -9.409673   1.000000
      2         -3.572613   0.166702
      3         -3.572608   0.166669
      4         -3.572607   0.166665
      5         -0.159270   0.000000
      6          0.186402   0.000000
      7          0.397506   0.000000
      8          0.423915   0.000000
 
  0.4500000E+00  0.2500000E+00  0.0000000E+00  0.3174603E-02
      1         -9.409672   1.000000
      2         -3.572615   0.166715
      3         -3.572608   0.166667
      4         -3.572607   0.166662
      5         -0.142674   0.000000
      6          0.146562   0.000000
      7          0.422135   0.000000
      8          0.449301   0.000000
 
  0.5000000E-01  0.3214286E+00  0.0000000E+00  0.3174603E-02
      1         -9.409673   1.000000
      2         -3.572657   0.167015
      3         -3.572605   0.166644
      4         -3.572596   0.166586
      5         -0.176486   0.000000
      6          0.243313   0.000000
      7          0.397391   0.000000
      8          0.415300   0.000000
 
  0.1500000E+00  0.3214286E+00  0.0000000E+00  0.3174603E-02
      1         -9.409673   1.000000
      2         -3.572657   0.167014
      3         -3.572605   0.166646
      4         -3.572599   0.166605
      5         -0.166887   0.000000
      6          0.252150   0.000000
      7          0.384691   0.000000
      8          0.408313   0.000000
 
  0.2500000E+00  0.3214286E+00  0.0000000E+00  0.3174603E-02
      1         -9.409673   1.000000
      2         -3.572657   0.167013
      3         -3.572605   0.166646
      4         -3.572604   0.166641
      5         -0.149297   0.000000
      6          0.258632   0.000000
      7          0.321679   0.000000
      8          0.429212   0.000000
 
  0.3500000E+00  0.3214286E+00  0.0000000E+00  0.3174603E-02
      1         -9.409673   1.000000
      2         -3.572657   0.167015
      3         -3.572609   0.166673
      4         -3.572604   0.166641
      5         -0.128006   0.000000
      6          0.220011   0.000000
      7          0.319647   0.000000
      8          0.456946   0.000000
 
  0.4500000E+00  0.3214286E+00  0.0000000E+00  0.3174603E-02
      1         -9.409672   1.000000
      2         -3.572657   0.167013
      3         -3.572611   0.166688
      4         -3.572604   0.166642
      5         -0.111900   0.000000
      6          0.183179   0.000000
      7          0.340660   0.000000
      8          0.481412   0.000000
 
  0.5000000E-01  0.3928571E+00  0.0000000E+00  0.3174603E-02
      1         -9.409672   1.000000
      2         -3.572697   0.167298
      3         -3.572602   0.166629
      4         -3.572593   0.166562
      5         -0.142475   0.000000
      6          0.176227   0.000000
      7          0.436893   0.000000
      8          0.457750   0.000000
 
  0.1500000E+00  0.3928571E+00  0.0000000E+00  0.3174603E-02
      1         -9.409672   1.000000
      2         -3.572697   0.167297
      3         -3.572601   0.166620
      4         -3.572597   0.166589
      5         -0.133103   0.000000
      6          0.187276   0.000000
      7          0.422231   0.000000
      8          0.447552   0.000000
 
  0.2500000E+00  0.3928571E+00  0.0000000E+00  0.3174603E-02
      1         -9.409673   1.000000
      2         -3.572697   0.167295
      3         -3.572602   0.166626
      4         -3.572601   0.166619
      5         -0.116019   0.000000
      6          0.208070   0.000000
      7          0.344940   0.000000
      8          0.467847   0.000000
 
  0.3500000E+00  0.3928571E+00  0.0000000E+00  0.3174603E-02
      1         -9.409672   1.000000
      2         -3.572696   0.167290
      3         -3.572605   0.166648
      4         -3.572601   0.166622
      5         -0.095544   0.000000
      6          0.232162   0.000000
      7          0.281672   0.000000
      8          0.496365   0.000000
 
  0.4500000E+00  0.3928571E+00  0.0000000E+00  0.3174603E-02
      1         -9.409672   1.000000
      2         -3.572696   0.167291
      3         -3.572608   0.166670
      4         -3.572602   0.166623
      5         -0.080264   0.000000
      6          0.226472   0.000000
      7          0.273428   0.000000
      8          0.447458   0.000000
 
  0.5000000E-01  0.4642857E+00  0.0000000E+00  0.3174603E-02
      1         -9.409673   1.000000
      2         -3.572720   0.167464
      3         -3.572601   0.166619
      4         -3.572591   0.166551
      5         -0.117252   0.000000
      6          0.133374   0.000000
      7          0.471898   0.000000
      8          0.506086   0.000000
 
  0.1500000E+00  0.4642857E+00  0.0000000E+00  0.3174603E-02
      1         -9.409673   1.000000
      2         -3.572720   0.167460
      3         -3.572600   0.166611
      4         -3.572595   0.166578
      5         -0.108152   0.000000
      6          0.145062   0.000000
      7          0.462295   0.000000
      8          0.482113   0.000000
 
  0.2500000E+00  0.4642857E+00  0.0000000E+00  0.3174603E-02
      1         -9.409672   1.000000
      2         -3.572719   0.167457
      3         -3.572600   0.166609
      4         -3.572599   0.166604
      5         -0.091667   0.000000
      6          0.167744   0.000000
      7          0.381863   0.000000
      8          0.501665   0.000000
 
  0.3500000E+00  0.4642857E+00  0.0000000E+00  0.3174603E-02
      1         -9.409672   1.000000
      2         -3.572719   0.167454
      3         -3.572603   0.166634
      4         -3.572599   0.166607
      5         -0.072141   0.000000
      6          0.198995   0.000000
      7          0.313952   0.000000
      8          0.438423   0.000000
 
  0.4500000E+00  0.4642857E+00  0.0000000E+00  0.3174603E-02
      1         -9.409672   1.000000
      2         -3.572719   0.167451
      3         -3.572606   0.166657
      4         -3.572599   0.166608
      5         -0.057794   0.000000
      6          0.229562   0.000000
      7          0.273553   0.000000
      8          0.385097   0.000000
 
  0.5000000E-01  0.3571429E-01  0.1111111E+00  0.6349206E-02
      1         -9.409673   1.000000
      2         -3.572618   0.166736
      3         -3.572608   0.166670
      4         -3.572495   0.165870
      5         -0.258655   0.000000
      6          0.218582   0.000000
      7          0.388338   0.000000
      8          0.453291   0.000000
 
  0.1500000E+00  0.3571429E-01  0.1111111E+00  0.6349206E-02
      1         -9.409674   1.000000
      2         -3.572617   0.166734
      3         -3.572612   0.166696
      4         -3.572495   0.165870
      5         -0.248851   0.000000
      6          0.223789   0.000000
      7          0.319404   0.000000
      8          0.439756   0.000000
 
  0.2500000E+00  0.3571429E-01  0.1111111E+00  0.6349206E-02
      1         -9.409673   1.000000
      2         -3.572617   0.166734
      3         -3.572616   0.166724
      4         -3.572495   0.165869
      5         -0.230813   0.000000
      6          0.197391   0.000000
      7          0.279937   0.000000
      8          0.459616   0.000000
 
  0.3500000E+00  0.3571429E-01  0.1111111E+00  0.6349206E-02
      1         -9.409673   1.000000
      2         -3.572621   0.166762
      3         -3.572617   0.166730
      4         -3.572495   0.165868
      5         -0.208803   0.000000
      6          0.135613   0.000000
      7          0.302608   0.000000
      8          0.488251   0.000000
 
  0.4500000E+00  0.3571429E-01  0.1111111E+00  0.6349206E-02
      1         -9.409673   1.000000
      2         -3.572623   0.166777
      3         -3.572617   0.166732
      4         -3.572495   0.165868
      5         -0.191963   0.000000
      6          0.095381   0.000000
      7          0.333226   0.000000
      8          0.472157   0.000000
 
  0.5000000E-01  0.1071429E+00  0.1111111E+00  0.6349206E-02
      1         -9.409674   1.000000
      2         -3.572616   0.166723
      3         -3.572607   0.166661
      4         -3.572518   0.166034
      5         -0.249537   0.000000
      6          0.227586   0.000000
      7          0.395832   0.000000
      8          0.462027   0.000000
 
  0.1500000E+00  0.1071429E+00  0.1111111E+00  0.6349206E-02
      1         -9.409674   1.000000
      2         -3.572616   0.166724
      3         -3.572610   0.166685
      4         -3.572518   0.166033
      5         -0.239748   0.000000
      6          0.232750   0.000000
      7          0.328250   0.000000
      8          0.447709   0.000000
 
  0.2500000E+00  0.1071429E+00  0.1111111E+00  0.6349206E-02
      1         -9.409674   1.000000
      2         -3.572616   0.166723
      3         -3.572615   0.166715
      4         -3.572517   0.166026
      5         -0.221741   0.000000
      6          0.206447   0.000000
      7          0.289070   0.000000
      8          0.467363   0.000000
 
  0.3500000E+00  0.1071429E+00  0.1111111E+00  0.6349206E-02
      1         -9.409673   1.000000
      2         -3.572620   0.166750
      3         -3.572615   0.166718
      4         -3.572516   0.166022
      5         -0.199780   0.000000
      6          0.144895   0.000000
      7          0.311642   0.000000
      8          0.496048   0.000000
 
  0.4500000E+00  0.1071429E+00  0.1111111E+00  0.6349206E-02
      1         -9.409672   1.000000
      2         -3.572622   0.166764
      3         -3.572615   0.166717
      4         -3.572516   0.166020
      5         -0.182989   0.000000
      6          0.104776   0.000000
      7          0.342137   0.000000
      8          0.481437   0.000000
 
  0.5000000E-01  0.1785714E+00  0.1111111E+00  0.6349206E-02
      1         -9.409673   1.000000
      2         -3.572612   0.166699
      3         -3.572603   0.166636
      4         -3.572557   0.166310
      5         -0.231619   0.000000
      6          0.244930   0.000000
      7          0.402441   0.000000
      8          0.471410   0.000000
 
  0.1500000E+00  0.1785714E+00  0.1111111E+00  0.6349206E-02
      1         -9.409673   1.000000
      2         -3.572612   0.166700
      3         -3.572607   0.166662
      4         -3.572557   0.166310
      5         -0.221865   0.000000
      6          0.249939   0.000000
      7          0.345196   0.000000
      8          0.449940   0.000000
 
  0.2500000E+00  0.1785714E+00  0.1111111E+00  0.6349206E-02
      1         -9.409674   1.000000
      2         -3.572612   0.166699
      3         -3.572612   0.166694
      4         -3.572558   0.166312
      5         -0.203934   0.000000
      6          0.224096   0.000000
      7          0.307176   0.000000
      8          0.467408   0.000000
 
  0.3500000E+00  0.1785714E+00  0.1111111E+00  0.6349206E-02
      1         -9.409673   1.000000
      2         -3.572616   0.166728
      3         -3.572612   0.166698
      4         -3.572557   0.166308
      5         -0.182095   0.000000
      6          0.163307   0.000000
      7          0.329360   0.000000
      8          0.495767   0.000000
 
  0.4500000E+00  0.1785714E+00  0.1111111E+00  0.6349206E-02
      1         -9.409672   1.000000
      2         -3.572618   0.166741
      3         -3.572612   0.166696
      4         -3.572556   0.166303
      5         -0.165427   0.000000
      6          0.123503   0.000000
      7          0.359535   0.000000
      8          0.499620   0.000000
 
  0.5000000E-01  0.2500000E+00  0.1111111E+00  0.6349206E-02
      1         -9.409674   1.000000
      2         -3.572609   0.166678
      3         -3.572607   0.166664
      4         -3.572600   0.166614
      5         -0.205708   0.000000
      6          0.266071   0.000000
      7          0.351910   0.000000
      8          0.458522   0.000000
 
  0.1500000E+00  0.2500000E+00  0.1111111E+00  0.6349206E-02
      1         -9.409673   1.000000
      2         -3.572609   0.166675
      3         -3.572607   0.166661
      4         -3.572603   0.166633
      5         -0.196024   0.000000
      6          0.270700   0.000000
      7          0.355881   0.000000
      8          0.390367   0.000000
 
  0.2500000E+00  0.2500000E+00  0.1111111E+00  0.6349206E-02
      1         -9.409673   1.000000
      2         -3.572609   0.166672
      3         -3.572607   0.166664
      4         -3.572607   0.166660
      5         -0.178248   0.000000
      6          0.248173   0.000000
      7          0.333284   0.000000
      8          0.389435   0.000000
 
  0.3500000E+00  0.2500000E+00  0.1111111E+00  0.6349206E-02
      1         -9.409673   1.000000
      2         -3.572612   0.166698
      3         -3.572608   0.166669
      4         -3.572607   0.166661
      5         -0.156656   0.000000
      6          0.190355   0.000000
      7          0.352998   0.000000
      8          0.415653   0.000000
 
  0.4500000E+00  0.2500000E+00  0.1111111E+00  0.6349206E-02
      1         -9.409673   1.000000
      2         -3.572615   0.166716
      3         -3.572608   0.166669
      4         -3.572607   0.166663
      5         -0.140241   0.000000
      6          0.151391   0.000000
      7          0.381800   0.000000
      8          0.439484   0.000000
 
  0.5000000E-01  0.3214286E+00  0.1111111E+00  0.6349206E-02
      1         -9.409673   1.000000
      2         -3.572657   0.167016
      3         -3.572605   0.166645
      4         -3.572596   0.166587
      5         -0.173631   0.000000
      6          0.243466   0.000000
      7          0.327297   0.000000
      8          0.489589   0.000000
 
  0.1500000E+00  0.3214286E+00  0.1111111E+00  0.6349206E-02
      1         -9.409673   1.000000
      2         -3.572657   0.167012
      3         -3.572605   0.166646
      4         -3.572599   0.166607
      5         -0.164079   0.000000
      6          0.252204   0.000000
      7          0.336486   0.000000
      8          0.412609   0.000000
 
  0.2500000E+00  0.3214286E+00  0.1111111E+00  0.6349206E-02
      1         -9.409673   1.000000
      2         -3.572657   0.167014
      3         -3.572605   0.166647
      4         -3.572604   0.166639
      5         -0.146594   0.000000
      6          0.259099   0.000000
      7          0.324888   0.000000
      8          0.371739   0.000000
 
  0.3500000E+00  0.3214286E+00  0.1111111E+00  0.6349206E-02
      1         -9.409673   1.000000
      2         -3.572657   0.167014
      3         -3.572609   0.166673
      4         -3.572605   0.166644
      5         -0.125472   0.000000
      6          0.223885   0.000000
      7          0.322262   0.000000
      8          0.398099   0.000000
 
  0.4500000E+00  0.3214286E+00  0.1111111E+00  0.6349206E-02
      1         -9.409672   1.000000
      2         -3.572657   0.167012
      3         -3.572611   0.166689
      4         -3.572604   0.166639
      5         -0.109537   0.000000
      6          0.187959   0.000000
      7          0.342720   0.000000
      8          0.427414   0.000000
 
  0.5000000E-01  0.3928571E+00  0.1111111E+00  0.6349206E-02
      1         -9.409672   1.000000
      2         -3.572697   0.167299
      3         -3.572602   0.166624
      4         -3.572593   0.166565
      5         -0.139773   0.000000
      6          0.180112   0.000000
      7          0.363677   0.000000
      8          0.529590   0.000000
 
  0.1500000E+00  0.3928571E+00  0.1111111E+00  0.6349206E-02
      1         -9.409672   1.000000
      2         -3.572697   0.167298
      3         -3.572601   0.166622
      4         -3.572597   0.166588
      5         -0.130447   0.000000
      6          0.191135   0.000000
      7          0.371061   0.000000
      8          0.452096   0.000000
 
  0.2500000E+00  0.3928571E+00  0.1111111E+00  0.6349206E-02
      1         -9.409672   1.000000
      2         -3.572696   0.167292
      3         -3.572602   0.166625
      4         -3.572601   0.166618
      5         -0.113462   0.000000
      6          0.211874   0.000000
      7          0.345054   0.000000
      8          0.412436   0.000000
 
  0.3500000E+00  0.3928571E+00  0.1111111E+00  0.6349206E-02
      1         -9.409672   1.000000
      2         -3.572696   0.167291
      3         -3.572605   0.166649
      4         -3.572601   0.166620
      5         -0.093143   0.000000
      6          0.235982   0.000000
      7          0.285743   0.000000
      8          0.437059   0.000000
 
  0.4500000E+00  0.3928571E+00  0.1111111E+00  0.6349206E-02
      1         -9.409672   1.000000
      2         -3.572696   0.167290
      3         -3.572608   0.166667
      4         -3.572601   0.166616
      5         -0.078017   0.000000
      6          0.231132   0.000000
      7          0.276997   0.000000
      8          0.451956   0.000000
 
  0.5000000E-01  0.4642857E+00  0.1111111E+00  0.6349206E-02
      1         -9.409672   1.000000
      2         -3.572721   0.167465
      3         -3.572600   0.166612
      4         -3.572592   0.166553
      5         -0.114736   0.000000
      6          0.137818   0.000000
      7          0.404400   0.000000
      8          0.524823   0.000000
 
  0.1500000E+00  0.4642857E+00  0.1111111E+00  0.6349206E-02
      1         -9.409673   1.000000
      2         -3.572720   0.167461
      3         -3.572600   0.166615
      4         -3.572595   0.166578
      5         -0.105677   0.000000
      6          0.149473   0.000000
      7          0.411306   0.000000
      8          0.488306   0.000000
 
  0.2500000E+00  0.4642857E+00  0.1111111E+00  0.6349206E-02
      1         -9.409673   1.000000
      2         -3.572720   0.167460
      3         -3.572601   0.166617
      4         -3.572599   0.166608
      5         -0.089281   0.000000
      6          0.172076   0.000000
      7          0.381832   0.000000
      8          0.451016   0.000000
 
  0.3500000E+00  0.4642857E+00  0.1111111E+00  0.6349206E-02
      1         -9.409672   1.000000
      2         -3.572719   0.167452
      3         -3.572603   0.166635
      4         -3.572599   0.166608
      5         -0.069891   0.000000
      6          0.203163   0.000000
      7          0.317799   0.000000
      8          0.442664   0.000000
 
  0.4500000E+00  0.4642857E+00  0.1111111E+00  0.6349206E-02
      1         -9.409672   1.000000
      2         -3.572719   0.167451
      3         -3.572606   0.166655
      4         -3.572600   0.166609
      5         -0.055672   0.000000
      6          0.233430   0.000000
      7          0.277975   0.000000
      8          0.390259   0.000000
 
  0.5000000E-01  0.3571429E-01  0.2222222E+00  0.6349206E-02
      1         -9.409673   1.000000
      2         -3.572617   0.166732
      3         -3.572608   0.166670
      4         -3.572495   0.165871
      5         -0.250447   0.000000
      6          0.147467   0.000000
      7          0.433214   0.000000
      8          0.516202   0.000000
 
  0.1500000E+00  0.3571429E-01  0.2222222E+00  0.6349206E-02
      1         -9.409674   1.000000
      2         -3.572617   0.166733
      3         -3.572612   0.166696
      4         -3.572495   0.165872
      5         -0.240787   0.000000
      6          0.157975   0.000000
      7          0.330138   0.000000
      8          0.541035   0.000000
 
  0.2500000E+00  0.3571429E-01  0.2222222E+00  0.6349206E-02
      1         -9.409674   1.000000
      2         -3.572617   0.166733
      3         -3.572616   0.166728
      4         -3.572495   0.165870
      5         -0.223070   0.000000
      6          0.172194   0.000000
      7          0.246956   0.000000
      8          0.529249   0.000000
 
  0.3500000E+00  0.3571429E-01  0.2222222E+00  0.6349206E-02
      1         -9.409674   1.000000
      2         -3.572621   0.166761
      3         -3.572617   0.166732
      4         -3.572495   0.165868
      5         -0.201584   0.000000
      6          0.146012   0.000000
      7          0.234475   0.000000
      8          0.452430   0.000000
 
  0.4500000E+00  0.3571429E-01  0.2222222E+00  0.6349206E-02
      1         -9.409673   1.000000
      2         -3.572624   0.166779
      3         -3.572617   0.166730
      4         -3.572494   0.165865
      5         -0.185289   0.000000
      6          0.109587   0.000000
      7          0.263568   0.000000
      8          0.392931   0.000000
 
  0.5000000E-01  0.1071429E+00  0.2222222E+00  0.6349206E-02
      1         -9.409674   1.000000
      2         -3.572616   0.166724
      3         -3.572607   0.166659
      4         -3.572518   0.166033
      5         -0.241357   0.000000
      6          0.156748   0.000000
      7          0.440830   0.000000
      8          0.520047   0.000000
 
  0.1500000E+00  0.1071429E+00  0.2222222E+00  0.6349206E-02
      1         -9.409674   1.000000
      2         -3.572616   0.166723
      3         -3.572610   0.166685
      4         -3.572518   0.166031
      5         -0.231712   0.000000
      6          0.167245   0.000000
      7          0.338907   0.000000
      8          0.544055   0.000000
 
  0.2500000E+00  0.1071429E+00  0.2222222E+00  0.6349206E-02
      1         -9.409673   1.000000
      2         -3.572616   0.166723
      3         -3.572615   0.166716
      4         -3.572517   0.166025
      5         -0.214025   0.000000
      6          0.181428   0.000000
      7          0.256087   0.000000
      8          0.537632   0.000000
 
  0.3500000E+00  0.1071429E+00  0.2222222E+00  0.6349206E-02
      1         -9.409673   1.000000
      2         -3.572619   0.166746
      3         -3.572615   0.166717
      4         -3.572516   0.166022
      5         -0.192586   0.000000
      6          0.155288   0.000000
      7          0.243694   0.000000
      8          0.461746   0.000000
 
  0.4500000E+00  0.1071429E+00  0.2222222E+00  0.6349206E-02
      1         -9.409673   1.000000
      2         -3.572622   0.166765
      3         -3.572615   0.166720
      4         -3.572517   0.166023
      5         -0.176337   0.000000
      6          0.118957   0.000000
      7          0.272695   0.000000
      8          0.402409   0.000000
 
  0.5000000E-01  0.1785714E+00  0.2222222E+00  0.6349206E-02
      1         -9.409673   1.000000
      2         -3.572613   0.166701
      3         -3.572604   0.166638
      4         -3.572558   0.166313
      5         -0.223509   0.000000
      6          0.175070   0.000000
      7          0.440076   0.000000
      8          0.481927   0.000000
 
  0.1500000E+00  0.1785714E+00  0.2222222E+00  0.6349206E-02
      1         -9.409673   1.000000
      2         -3.572613   0.166700
      3         -3.572607   0.166661
      4         -3.572558   0.166313
      5         -0.213898   0.000000
      6          0.185531   0.000000
      7          0.355466   0.000000
      8          0.476268   0.000000
 
  0.2500000E+00  0.1785714E+00  0.2222222E+00  0.6349206E-02
      1         -9.409674   1.000000
      2         -3.572613   0.166701
      3         -3.572612   0.166696
      4         -3.572557   0.166309
      5         -0.196286   0.000000
      6          0.199606   0.000000
      7          0.274204   0.000000
      8          0.495566   0.000000
 