<?xml version="1.0" encoding="ISO-8859-1"?>
<modeling>
 <generator>
  <i name="program" type="string">vasp </i>
  <i name="version" type="string">6.4.3  </i>
  <i name="subversion" type="string">19Mar24 (build May 31 2024 16:31:43) complex                          parallel </i>
  <i name="platform" type="string">LinuxIFC </i>
  <i name="date" type="string">2024 11 01 </i>
  <i name="time" type="string">15:53:38 </i>
 </generator>
 <incar>
  <i type="string" name="SYSTEM">Kpoints</i>
  <i type="int" name="ISTART">     0</i>
  <i type="string" name="PREC">Accurate</i>
  <i type="string" name="ALGO">Normal</i>
  <i type="int" name="ISPIN">     1</i>
  <i type="int" name="ICHARG">     2</i>
  <i type="int" name="NELM">   100</i>
  <i type="int" name="IBRION">    -1</i>
  <i name="EDIFF">      0.00000100</i>
  <i name="EDIFFG">     -0.00100000</i>
  <i type="int" name="NSW">     0</i>
  <i type="int" name="ISIF">     2</i>
  <i name="ENCUT">    400.00000000</i>
  <i name="POTIM">      0.50000000</i>
  <i type="int" name="ISMEAR">     0</i>
  <i name="SIGMA">      0.05000000</i>
  <i type="logical" name="LWAVE"> F  </i>
  <i type="logical" name="LCHARG"> F  </i>
  <i type="string" name="GGA">PE</i>
 </incar>
 <primitive_cell>
  <structure name="primitive_cell" >
   <crystal>
    <varray name="basis" >
     <v>      15.00000000       0.00000000       0.00000000 </v>
     <v>       0.00000000      12.50000000       0.00000000 </v>
     <v>       0.00000000       0.00000000      18.00000000 </v>
    </varray>
    <i name="volume">   3375.00000000 </i>
    <varray name="rec_basis" >
     <v>       0.06666667       0.00000000       0.00000000 </v>
     <v>       0.00000000       0.08000000       0.00000000 </v>
     <v>       0.00000000       0.00000000       0.05555556 </v>
    </varray>
   </crystal>
   <varray name="positions" >
    <v>       0.52123000       0.54500000       0.63796000 </v>
   </varray>
  </structure>
  <varray name="primitive_index" >
   <v type="int" >        1 </v>
  </varray>
 </primitive_cell>
 <kpoints>
  <generation param="Monkhorst-Pack">
   <v type="int" name="divisions">      10       14        9 </v>
   <v name="usershift">      0.00000000       0.00000000       0.00000000 </v>
   <v name="genvec1">      0.10000000       0.00000000       0.00000000 </v>
   <v name="genvec2">      0.00000000       0.07142857       0.00000000 </v>
   <v name="genvec3">      0.00000000       0.00000000       0.11111111 </v>
   <v name="shift">      0.50000000       0.50000000       0.00000000 </v>
  </generation>
  <varray name="kpointlist" >
   <v>       0.05000000       0.03571429       0.00000000 </v>
   <v>       0.15000000       0.03571429       0.00000000 </v>
   <v>       0.25000000       0.03571429       0.00000000 </v>
   <v>       0.35000000       0.03571429       0.00000000 </v>
   <v>       0.45000000       0.03571429       0.00000000 </v>
   <v>       0.05000000       0.10714286       0.00000000 </v>
   <v>       0.15000000       0.10714286       0.00000000 </v>
   <v>       0.25000000       0.10714286       0.00000000 </v>
   <v>       0.35000000       0.10714286       0.00000000 </v>
   <v>       0.45000000       0.10714286       0.00000000 </v>
   <v>       0.05000000       0.17857143       0.00000000 </v>
   <v>       0.15000000       0.17857143       0.00000000 </v>
   <v>       0.25000000       0.17857143       0.00000000 </v>
   <v>       0.35000000       0.17857143       0.00000000 </v>
   <v>       0.45000000       0.17857143       0.00000000 </v>
   <v>       0.05000000       0.25000000       0.00000000 </v>
   <v>       0.15000000       0.25000000       0.00000000 </v>
   <v>       0.25000000       0.25000000       0.00000000 </v>
   <v>       0.35000000       0.25000000       0.00000000 </v>
   <v>       0.45000000       0.25000000       0.00000000 </v>
   <v>       0.05000000       0.32142857       0.00000000 </v>
   <v>       0.15000000       0.32142857       0.00000000 </v>
   <v>       0.25000000       0.32142857       0.00000000 </v>
   <v>       0.35000000       0.32142857       0.00000000 </v>
   <v>       0.45000000       0.32142857       0.00000000 </v>
   <v>       0.05000000       0.39285714       0.00000000 </v>
   <v>       0.15000000       0.39285714       0.00000000 </v>
   <v>       0.25000000       0.39285714       0.00000000 </v>
   <v>       0.35000000       0.39285714       0.00000000 </v>
   <v>       0.45000000       0.39285714       0.00000000 </v>
   <v>       0.05000000       0.46428571       0.00000000 </v>
   <v>       0.15000000       0.46428571       0.00000000 </v>
   <v>       0.25000000       0.46428571       0.00000000 </v>
   <v>       0.35000000       0.46428571       0.00000000 </v>
   <v>       0.45000000       0.46428571       0.00000000 </v>
   <v>       0.05000000       0.03571429       0.11111111 </v>
   <v>       0.15000000       0.03571429       0.11111111 </v>
   <v>       0.25000000       0.03571429       0.11111111 </v>
   <v>       0.35000000       0.03571429       0.11111111 </v>
   <v>       0.45000000       0.03571429       0.11111111 </v>
   <v>       0.05000000       0.10714286       0.11111111 </v>
   <v>       0.15000000       0.10714286       0.11111111 </v>
   <v>       0.25000000       0.10714286       0.11111111 </v>
   <v>       0.35000000       0.10714286       0.11111111 </v>
   <v>       0.45000000       0.10714286       0.11111111 </v>
   <v>       0.05000000       0.17857143       0.11111111 </v>
   <v>       0.15000000       0.17857143       0.11111111 </v>
   <v>       0.25000000       0.17857143       0.11111111 </v>
   <v>       0.35000000       0.17857143       0.11111111 </v>
   <v>       0.45000000       0.17857143       0.11111111 </v>
   <v>       0.05000000       0.25000000       0.11111111 </v>
   <v>       0.15000000       0.25000000       0.11111111 </v>
   <v>       0.25000000       0.25000000       0.11111111 </v>
   <v>       0.35000000       0.25000000       0.11111111 </v>
   <v>       0.45000000       0.25000000       0.11111111 </v>
   <v>       0.05000000       0.32142857       0.11111111 </v>
   <v>       0.15000000       0.32142857       0.11111111 </v>
   <v>       0.25000000       0.32142857       0.11111111 </v>
   <v>       0.35000000       0.32142857       0.11111111 </v>
   <v>       0.45000000       0.32142857       0.11111111 </v>
   <v>       0.05000000       0.39285714       0.11111111 </v>
   <v>       0.15000000       0.39285714       0.11111111 </v>
   <v>       0.25000000       0.39285714       0.11111111 </v>
   <v>       0.35000000       0.39285714       0.11111111 </v>
   <v>       0.45000000       0.39285714       0.11111111 </v>
   <v>       0.05000000       0.46428571       0.11111111 </v>
   <v>       0.15000000       0.46428571       0.11111111 </v>
   <v>       0.25000000       0.46428571       0.11111111 </v>
   <v>       0.35000000       0.46428571       0.11111111 </v>
   <v>       0.45000000       0.46428571       0.11111111 </v>
   <v>       0.05000000       0.03571429       0.22222222 </v>
   <v>       0.15000000       0.03571429       0.22222222 </v>
   <v>       0.25000000       0.03571429       0.22222222 </v>
   <v>       0.35000000       0.03571429       0.22222222 </v>
   <v>       0.45000000       0.03571429       0.22222222 </v>
   <v>       0.05000000       0.10714286       0.22222222 </v>
   <v>       0.15000000       0.10714286       0.22222222 </v>
   <v>       0.25000000       0.10714286       0.22222222 </v>
   <v>       0.35000000       0.10714286       0.22222222 </v>
   <v>       0.45000000       0.10714286       0.22222222 </v>
   <v>       0.05000000       0.17857143       0.22222222 </v>
   <v>       0.15000000       0.17857143       0.22222222 </v>
   <v>       0.25000000       0.17857143       0.22222222 </v>
   <v>       0.35000000       0.17857143       0.22222222 </v>
   <v>       0.45000000       0.17857143       0.22222222 </v>
   <v>       0.05000000       0.25000000       0.22222222 </v>
   <v>       0.15000000       0.25000000       0.22222222 </v>
   <v>       0.25000000       0.25000000       0.22222222 </v>
   <v>       0.35000000       0.25000000       0.22222222 </v>
   <v>       0.45000000       0.25000000       0.22222222 </v>
   <v>       0.05000000       0.32142857       0.22222222 </v>
   <v>       0.15000000       0.32142857       0.22222222 </v>
   <v>       0.25000000       0.32142857       0.22222222 </v>
   <v>       0.35000000       0.32142857       0.22222222 </v>
   <v>       0.45000000       0.32142857       0.22222222 </v>
   <v>       0.05000000       0.39285714       0.22222222 </v>
   <v>       0.15000000       0.39285714       0.22222222 </v>
   <v>       0.25000000       0.39285714       0.22222222 </v>
   <v>       0.35000000       0.39285714       0.22222222 </v>
   <v>       0.45000000       0.39285714       0.22222222 </v>
   <v>       0.05000000       0.46428571       0.22222222 </v>
   <v>       0.15000000       0.46428571       0.22222222 </v>
   <v>       0.25000000       0.46428571       0.22222222 </v>
   <v>       0.35000000       0.46428571       0.22222222 </v>
   <v>       0.45000000       0.46428571       0.22222222 </v>
   <v>       0.05000000       0.03571429       0.33333333 </v>
   <v>       0.15000000       0.03571429       0.33333333 </v>
   <v>       0.25000000       0.03571429       0.33333333 </v>
   <v>       0.35000000       0.03571429       0.33333333 </v>
   <v>       0.45000000       0.03571429       0.33333333 </v>
   <v>       0.05000000       0.10714286       0.33333333 </v>
   <v>       0.15000000       0.10714286       0.33333333 </v>
   <v>       0.25000000       0.10714286       0.33333333 </v>
   <v>       0.35000000       0.10714286       0.33333333 </v>
   <v>       0.45000000       0.10714286       0.33333333 </v>
   <v>       0.05000000       0.17857143       0.33333333 </v>
   <v>       0.15000000       0.17857143       0.33333333 </v>
   <v>       0.25000000       0.17857143       0.33333333 </v>
   <v>       0.35000000       0.17857143       0.33333333 </v>
   <v>       0.45000000       0.17857143       0.33333333 </v>
   <v>       0.05000000       0.25000000       0.33333333 </v>
   <v>       0.15000000       0.25000000       0.33333333 </v>
   <v>       0.25000000       0.25000000       0.33333333 </v>
   <v>       0.35000000       0.25000000       0.33333333 </v>
   <v>       0.45000000       0.25000000       0.33333333 </v>
   <v>       0.05000000       0.32142857       0.33333333 </v>
   <v>       0.15000000       0.32142857       0.33333333 </v>
   <v>       0.25000000       0.32142857       0.33333333 </v>
   <v>       0.35000000       0.32142857       0.33333333 </v>
   <v>       0.45000000       0.32142857       0.33333333 </v>
   <v>       0.05000000       0.39285714       0.33333333 </v>
   <v>       0.15000000       0.39285714       0.33333333 </v>
   <v>       0.25000000       0.39285714       0.33333333 </v>
   <v>       0.35000000       0.39285714       0.33333333 </v>
   <v>       0.45000000       0.39285714       0.33333333 </v>
   <v>       0.05000000       0.46428571       0.33333333 </v>
   <v>       0.15000000       0.46428571       0.33333333 </v>
   <v>       0.25000000       0.46428571       0.33333333 </v>
   <v>       0.35000000       0.46428571       0.33333333 </v>
   <v>       0.45000000       0.46428571       0.33333333 </v>
   <v>       0.05000000       0.03571429       0.44444444 </v>
   <v>       0.15000000       0.03571429       0.44444444 </v>
   <v>       0.25000000       0.03571429       0.44444444 </v>
   <v>       0.35000000       0.03571429       0.44444444 </v>
   <v>       0.45000000       0.03571429       0.44444444 </v>
   <v>       0.05000000       0.10714286       0.44444444 </v>
   <v>       0.15000000       0.10714286       0.44444444 </v>
   <v>       0.25000000       0.10714286       0.44444444 </v>
   <v>       0.35000000       0.10714286       0.44444444 </v>
   <v>       0.45000000       0.10714286       0.44444444 </v>
   <v>       0.05000000       0.17857143       0.44444444 </v>
   <v>       0.15000000       0.17857143       0.44444444 </v>
   <v>       0.25000000       0.17857143       0.44444444 </v>
   <v>       0.35000000       0.17857143       0.44444444 </v>
   <v>       0.45000000       0.17857143       0.44444444 </v>
   <v>       0.05000000       0.25000000       0.44444444 </v>
   <v>       0.15000000       0.25000000       0.44444444 </v>
   <v>       0.25000000       0.25000000       0.44444444 </v>
   <v>       0.35000000       0.25000000       0.44444444 </v>
   <v>       0.45000000       0.25000000       0.44444444 </v>
   <v>       0.05000000       0.32142857       0.44444444 </v>
   <v>       0.15000000       0.32142857       0.44444444 </v>
   <v>       0.25000000       0.32142857       0.44444444 </v>
   <v>       0.35000000       0.32142857       0.44444444 </v>
   <v>       0.45000000       0.32142857       0.44444444 </v>
   <v>       0.05000000       0.39285714       0.44444444 </v>
   <v>       0.15000000       0.39285714       0.44444444 </v>
   <v>       0.25000000       0.39285714       0.44444444 </v>
   <v>       0.35000000       0.39285714       0.44444444 </v>
   <v>       0.45000000       0.39285714       0.44444444 </v>
   <v>       0.05000000       0.46428571       0.44444444 </v>
   <v>       0.15000000       0.46428571       0.44444444 </v>
   <v>       0.25000000       0.46428571       0.44444444 </v>
   <v>       0.35000000       0.46428571       0.44444444 </v>
   <v>       0.45000000       0.46428571       0.44444444 </v>
  </varray>
  <varray name="weights" >
   <v>       0.00317460 </v>
   <v>       0.00317460 </v>
   <v>       0.00317460 </v>
   <v>       0.00317460 </v>
   <v>       0.00317460 </v>
   <v>       0.00317460 </v>
   <v>       0.00317460 </v>
   <v>       0.00317460 </v>
   <v>       0.00317460 </v>
   <v>       0.00317460 </v>
   <v>       0.00317460 </v>
   <v>       0.00317460 </v>
   <v>       0.00317460 </v>
   <v>       0.00317460 </v>
   <v>       0.00317460 </v>
   <v>       0.00317460 </v>
   <v>       0.00317460 </v>
   <v>       0.00317460 </v>
   <v>       0.00317460 </v>
   <v>       0.00317460 </v>
   <v>       0.00317460 </v>
   <v>       0.00317460 </v>
   <v>       0.00317460 </v>
   <v>       0.00317460 </v>
   <v>       0.00317460 </v>
   <v>       0.00317460 </v>
   <v>       0.00317460 </v>
   <v>       0.00317460 </v>
   <v>       0.00317460 </v>
   <v>       0.00317460 </v>
   <v>       0.00317460 </v>
   <v>       0.00317460 </v>
   <v>       0.00317460 </v>
   <v>       0.00317460 </v>
   <v>       0.00317460 </v>
   <v>       0.00634921 </v>
   <v>       0.00634921 </v>
   <v>       0.00634921 </v>
   <v>       0.00634921 </v>
   <v>       0.00634921 </v>
   <v>       0.00634921 </v>
   <v>       0.00634921 </v>
   <v>       0.00634921 </v>
   <v>       0.00634921 </v>
   <v>       0.00634921 </v>
   <v>       0.00634921 </v>
   <v>       0.00634921 </v>
   <v>       0.00634921 </v>
   <v>       0.00634921 </v>
   <v>       0.00634921 </v>
   <v>       0.00634921 </v>
   <v>       0.00634921 </v>
   <v>       0.00634921 </v>
   <v>       0.00634921 </v>
   <v>       0.00634921 </v>
   <v>       0.00634921 </v>
   <v>       0.00634921 </v>
   <v>       0.00634921 </v>
   <v>       0.00634921 </v>
   <v>       0.00634921 </v>
   <v>       0.00634921 </v>
   <v>       0.00634921 </v>
   <v>       0.00634921 </v>
   <v>       0.00634921 </v>
   <v>       0.00634921 </v>
   <v>       0.00634921 </v>
   <v>       0.00634921 </v>
   <v>       0.00634921 </v>
   <v>       0.00634921 </v>
   <v>       0.00634921 </v>
   <v>       0.00634921 </v>
   <v>       0.00634921 </v>
   <v>       0.00634921 </v>
   <v>       0.00634921 </v>
   <v>       0.00634921 </v>
   <v>       0.00634921 </v>
   <v>       0.00634921 </v>
   <v>       0.00634921 </v>
   <v>       0.00634921 </v>
   <v>       0.00634921 </v>
   <v>       0.00634921 </v>
   <v>       0.00634921 </v>
   <v>       0.00634921 </v>
   <v>       0.00634921 </v>
   <v>       0.00634921 </v>
   <v>       0.00634921 </v>
   <v>       0.00634921 </v>
   <v>       0.00634921 </v>
   <v>       0.00634921 </v>
   <v>       0.00634921 </v>
   <v>       0.00634921 </v>
   <v>       0.00634921 </v>
   <v>       0.00634921 </v>
   <v>       0.00634921 </v>
   <v>       0.00634921 </v>
   <v>       0.00634921 </v>
   <v>       0.00634921 </v>
   <v>       0.00634921 </v>
   <v>       0.00634921 </v>
   <v>       0.00634921 </v>
   <v>       0.00634921 </v>
   <v>       0.00634921 </v>
   <v>       0.00634921 </v>
   <v>       0.00634921 </v>
   <v>       0.00634921 </v>
   <v>       0.00634921 </v>
   <v>       0.00634921 </v>
   <v>       0.00634921 </v>
   <v>       0.00634921 </v>
   <v>       0.00634921 </v>
   <v>       0.00634921 </v>
   <v>       0.00634921 </v>
   <v>       0.00634921 </v>
   <v>       0.00634921 </v>
   <v>       0.00634921 </v>
   <v>       0.00634921 </v>
   <v>       0.00634921 </v>
   <v>       0.00634921 </v>
   <v>       0.00634921 </v>
   <v>       0.00634921 </v>
   <v>       0.00634921 </v>
   <v>       0.00634921 </v>
   <v>       0.00634921 </v>
   <v>       0.00634921 </v>
   <v>       0.00634921 </v>
   <v>       0.00634921 </v>
   <v>       0.00634921 </v>
   <v>       0.00634921 </v>
   <v>       0.00634921 </v>
   <v>       0.00634921 </v>
   <v>       0.00634921 </v>
   <v>       0.00634921 </v>
   <v>       0.00634921 </v>
   <v>       0.00634921 </v>
   <v>       0.00634921 </v>
   <v>       0.00634921 </v>
   <v>       0.00634921 </v>
   <v>       0.00634921 </v>
   <v>       0.00634921 </v>
   <v>       0.00634921 </v>
   <v>       0.00634921 </v>
   <v>       0.00634921 </v>
   <v>       0.00634921 </v>
   <v>       0.00634921 </v>
   <v>       0.00634921 </v>
   <v>       0.00634921 </v>
   <v>       0.00634921 </v>
   <v>       0.00634921 </v>
   <v>       0.00634921 </v>
   <v>       0.00634921 </v>
   <v>       0.00634921 </v>
   <v>       0.00634921 </v>
   <v>       0.00634921 </v>
   <v>       0.00634921 </v>
   <v>       0.00634921 </v>
   <v>       0.00634921 </v>
   <v>       0.00634921 </v>
   <v>       0.00634921 </v>
   <v>       0.00634921 </v>
   <v>       0.00634921 </v>
   <v>       0.00634921 </v>
   <v>       0.00634921 </v>
   <v>       0.00634921 </v>
   <v>       0.00634921 </v>
   <v>       0.00634921 </v>
   <v>       0.00634921 </v>
   <v>       0.00634921 </v>
   <v>       0.00634921 </v>
   <v>       0.00634921 </v>
   <v>       0.00634921 </v>
   <v>       0.00634921 </v>
   <v>       0.00634921 </v>
   <v>       0.00634921 </v>
   <v>       0.00634921 </v>
   <v>       0.00634921 </v>
  </varray>
 </kpoints>
 <parameters>
  <separator name="general" >
   <i type="string" name="SYSTEM">Kpoints</i>
   <i type="logical" name="LCOMPAT"> F  </i>
  </separator>
  <separator name="electronic" >
   <i type="string" name="PREC">accura</i>
   <i name="ENMAX">    400.00000000</i>
   <i name="ENAUG">    535.51400000</i>
   <i name="EDIFF">      0.00000100</i>
   <i type="int" name="IALGO">    38</i>
   <i type="int" name="IWAVPR">    10</i>
   <i type="int" name="NBANDS">     8</i>
   <i type="int" name="NBANDSLOW">    -1</i>
   <i type="int" name="NBANDSHIGH">    -1</i>
   <i name="NELECT">      3.00000000</i>
   <i type="int" name="TURBO">     0</i>
   <i type="int" name="IRESTART">     0</i>
   <i type="int" name="NREBOOT">     0</i>
   <i type="int" name="NMIN">     0</i>
   <i name="EREF">      0.00000000</i>
   <separator name="electronic smearing" >
    <i type="int" name="ISMEAR">     0</i>
    <i name="SIGMA">      0.05000000</i>
    <i name="KSPACING">      0.50000000</i>
    <i type="logical" name="KGAMMA"> T  </i>
    <i type="logical" name="KBLOWUP"> T  </i>
   </separator>
   <separator name="electronic projectors" >
    <i type="logical" name="LREAL"> F  </i>
    <v name="ROPT">      0.00000000</v>
    <i type="int" name="LMAXPAW">  -100</i>
    <i type="int" name="LMAXMIX">     2</i>
    <i type="logical" name="NLSPLINE"> F  </i>
   </separator>
   <separator name="electronic startup" >
    <i type="int" name="ISTART">     0</i>
    <i type="int" name="ICHARG">     2</i>
    <i type="int" name="INIWAV">     1</i>
   </separator>
   <separator name="electronic spin" >
    <i type="int" name="ISPIN">     1</i>
    <i type="logical" name="LNONCOLLINEAR"> F  </i>
    <v name="MAGMOM">      1.00000000</v>
    <i name="NUPDOWN">     -1.00000000</i>
    <i type="logical" name="LSORBIT"> F  </i>
    <v name="SAXIS">      0.00000000      0.00000000      1.00000000</v>
    <i type="logical" name="LSPIRAL"> F  </i>
    <v name="QSPIRAL">      0.00000000      0.00000000      0.00000000</v>
    <i type="logical" name="LZEROZ"> F  </i>
   </separator>
   <separator name="electronic exchange-correlation" >
    <i type="logical" name="LASPH"> F  </i>
   </separator>
   <separator name="electronic convergence" >
    <i type="int" name="NELM">   100</i>
    <i type="int" name="NELMDL">    -5</i>
    <i type="int" name="NELMIN">     2</i>
    <i name="ENINI">    400.00000000</i>
    <separator name="electronic convergence detail" >
     <i type="logical" name="LDIAG"> T  </i>
     <i type="logical" name="LSUBROT"> F  </i>
     <i name="WEIMIN">      0.00000000</i>
     <i name="EBREAK">      0.00000003</i>
     <i name="DEPER">      0.30000000</i>
     <i type="int" name="NRMM">     4</i>
     <i name="TIME">      0.40000000</i>
    </separator>
   </separator>
   <separator name="electronic mixer" >
    <i name="AMIX">      0.40000000</i>
    <i name="BMIX">      1.00000000</i>
    <i name="AMIN">      0.10000000</i>
    <i name="AMIX_MAG">      1.60000000</i>
    <i name="BMIX_MAG">      1.00000000</i>
    <separator name="electronic mixer details" >
     <i type="int" name="IMIX">     4</i>
     <i type="logical" name="MIXFIRST"> F  </i>
     <i type="int" name="MAXMIX">   -45</i>
     <i name="WC">    100.00000000</i>
     <i type="int" name="INIMIX">     1</i>
     <i type="int" name="MIXPRE">     1</i>
     <i type="int" name="MREMOVE">     5</i>
    </separator>
   </separator>
   <separator name="electronic dipolcorrection" >
    <i type="logical" name="LDIPOL"> F  </i>
    <i type="logical" name="LMONO"> F  </i>
    <i type="int" name="IDIPOL">     0</i>
    <i name="EPSILON">      1.00000000</i>
    <v name="DIPOL">   -100.00000000   -100.00000000   -100.00000000</v>
    <i name="EFIELD">      0.00000000</i>
    <i type="logical" name="LVACPOTAV"> F  </i>
   </separator>
  </separator>
  <separator name="grids" >
   <i type="int" name="NGX">    98</i>
   <i type="int" name="NGY">    84</i>
   <i type="int" name="NGZ">   120</i>
   <i type="int" name="NGXF">   196</i>
   <i type="int" name="NGYF">   168</i>
   <i type="int" name="NGZF">   240</i>
   <i type="logical" name="ADDGRID"> F  </i>
  </separator>
  <separator name="ionic" >
   <i type="int" name="NSW">     0</i>
   <i type="int" name="IBRION">    -1</i>
   <i type="int" name="MDALGO">     0</i>
   <i type="int" name="ISIF">     2</i>
   <i name="PSTRESS">      0.00000000</i>
   <i name="EDIFFG">     -0.00100000</i>
   <i type="int" name="NFREE">     0</i>
   <i name="POTIM">      0.50000000</i>
   <i name="SMASS">     -3.00000000</i>
   <i name="SCALEE">      1.00000000</i>
  </separator>
  <separator name="ionic md" >
   <i name="TEBEG">      0.00010000</i>
   <i name="TEEND">      0.00010000</i>
   <i type="int" name="NBLOCK">     1</i>
   <i type="int" name="KBLOCK">     1</i>
   <i type="int" name="NPACO">   256</i>
   <i name="APACO">     10.00000000</i>
  </separator>
  <separator name="symmetry" >
   <i type="int" name="ISYM">     2</i>
   <i name="SYMPREC">      0.00001000</i>
  </separator>
  <separator name="dos" >
   <i type="int" name="LORBIT">     0</i>
   <v name="RWIGS">     -1.00000000</v>
   <i type="int" name="NEDOS">   301</i>
   <i name="EMIN">     10.00000000</i>
   <i name="EMAX">    -10.00000000</i>
   <i name="EFERMI">      0.00000000</i>
  </separator>
  <separator name="writing" >
   <i type="int" name="NWRITE">     2</i>
   <i type="logical" name="LWAVE"> F  </i>
   <i type="logical" name="LDOWNSAMPLE"> F  </i>
   <i type="logical" name="LCHARG"> F  </i>
   <i type="logical" name="LPARD"> F  </i>
   <i type="logical" name="LVTOT"> F  </i>
   <i type="logical" name="LVHAR"> F  </i>
   <i type="logical" name="LELF"> F  </i>
   <i type="logical" name="LOPTICS"> F  </i>
   <v name="STM">      0.00000000      0.00000000      0.00000000      0.00000000      0.00000000      0.00000000      0.00000000</v>
  </separator>
  <separator name="performance" >
   <i type="int" name="NPAR">     8</i>
   <i type="int" name="NSIM">     4</i>
   <i type="int" name="NBLK">    -1</i>
   <i type="logical" name="LPLANE"> T  </i>
   <i type="logical" name="LSCALAPACK"> T  </i>
   <i type="logical" name="LSCAAWARE"> F  </i>
   <i type="logical" name="LSCALU"> F  </i>
   <i type="logical" name="LASYNC"> F  </i>
   <i type="logical" name="LORBITALREAL"> F  </i>
  </separator>
  <separator name="miscellaneous" >
   <i type="int" name="IDIOT">     3</i>
   <i type="int" name="PHON_NSTRUCT">    -1</i>
   <i type="logical" name="LMUSIC"> F  </i>
   <v name="POMASS">     10.81100000</v>
   <v name="DARWINR">      0.00000000</v>
   <v name="DARWINV">      1.00000000</v>
   <i type="logical" name="LCORR"> T  </i>
  </separator>
  <i type="logical" name="GGA_COMPAT"> T  </i>
  <i type="logical" name="LBERRY"> F  </i>
  <i type="int" name="ICORELEVEL">     0</i>
  <i type="logical" name="LDAU"> F  </i>
  <i type="int" name="I_CONSTRAINED_M">     0</i>
  <separator name="electronic exchange-correlation" >
   <i type="string" name="GGA    ">PE</i>
   <i type="string" name="XC_C">1</i>
   <i type="int" name="VOSKOWN">     0</i>
   <i type="logical" name="LHFCALC"> F  </i>
   <i type="string" name="PRECFOCK"></i>
   <i type="logical" name="LSYMGRAD"> F  </i>
   <i type="logical" name="LHFONE"> F  </i>
   <i type="logical" name="LRHFCALC"> F  </i>
   <i type="logical" name="LTHOMAS"> F  </i>
   <i type="logical" name="LMODELHF"> F  </i>
   <i type="logical" name="LFOCKACE"> F  </i>
   <i name="ENCUT4O">     -1.00000000</i>
   <i type="int" name="EXXOEP">     0</i>
   <i type="int" name="FOURORBIT">     0</i>
   <i name="AEXX">      0.00000000</i>
   <i name="HFALPHA">      0.00000000</i>
   <i name="MCALPHA">      0.00000000</i>
   <i name="ALDAX">      1.00000000</i>
   <i name="AGGAX">      1.00000000</i>
   <i name="AMGGAX">      1.00000000</i>
   <i name="ALDAC">      1.00000000</i>
   <i name="AGGAC">      1.00000000</i>
   <i name="AMGGAC">      1.00000000</i>
   <i type="int" name="NKREDX">     1</i>
   <i type="int" name="NKREDY">     1</i>
   <i type="int" name="NKREDZ">     1</i>
   <i type="logical" name="SHIFTRED"> F  </i>
   <i type="logical" name="ODDONLY"> F  </i>
   <i type="logical" name="EVENONLY"> F  </i>
   <i type="int" name="LMAXFOCK">     0</i>
   <i type="int" name="NMAXFOCKAE">     0</i>
   <i type="logical" name="LFOCKAEDFT"> F  </i>
   <i name="HFSCREEN">      0.00000000</i>
   <i name="HFSCREENC">      0.00000000</i>
   <i type="int" name="NBANDSGWLOW">     0</i>
  </separator>
  <separator name="vdW DFT" >
   <i type="logical" name="LUSE_VDW"> F  </i>
   <i type="int" name="IVDW_NL">    -1</i>
   <i type="logical" name="LSPIN_VDW"> F  </i>
   <i name="ZAB_VDW">     -0.84910000</i>
   <i name="GAMMA_VDW">      1.39626340</i>
   <i name="ALPHA_VDW">      0.00000000</i>
   <i name="PARAM1">      0.12340000</i>
   <i name="PARAM2">      1.00000000</i>
   <i name="BPARAM">      6.30000000</i>
   <i name="CPARAM">      0.00930000</i>
  </separator>
  <separator name="model GW" >
   <i type="int" name="MODEL_GW">     0</i>
   <i name="MODEL_EPS0">   2025.00000000</i>
   <i name="MODEL_ALPHA">      1.00000000</i>
  </separator>
  <separator name="linear response parameters" >
   <i type="logical" name="LEPSILON"> F  </i>
   <i type="logical" name="LRPA"> F  </i>
   <i type="logical" name="LNABLA"> F  </i>
   <i type="logical" name="LVEL"> F  </i>
   <i name="CSHIFT">      0.10000000</i>
   <i name="OMEGAMAX">     -1.00000000</i>
   <i name="DEG_THRESHOLD">      0.00200000</i>
   <i name="RTIME">     -0.10000000</i>
   <i name="WPLASMAI">      0.00000000</i>
   <v name="DFIELD">      0.00000000      0.00000000      0.00000000</v>
   <v name="WPLASMA">      0.00000000      0.00000000      0.00000000      0.00000000      0.00000000      0.00000000      0.00000000      0.00000000      0.00000000</v>
  </separator>
  <separator name="orbital magnetization" >
   <i type="logical" name="NUCIND"> F  </i>
   <v name="MAGPOS">      0.00000000      0.00000000      0.00000000</v>
   <i type="logical" name="LNICSALL"> T  </i>
   <i type="logical" name="ORBITALMAG"> F  </i>
   <i type="logical" name="LMAGBLOCH"> F  </i>
   <i type="logical" name="LCHIMAG"> F  </i>
   <i type="logical" name="LGAUGE"> T  </i>
   <i type="int" name="MAGATOM">     0</i>
   <v name="MAGDIPOL">      0.00000000      0.00000000      0.00000000</v>
   <v name="AVECCONST">      0.00000000      0.00000000      0.00000000</v>
  </separator>
  <separator name="response functions" >
   <i type="logical" name="LALL_IN_ONE"> F  </i>
   <i type="int" name="IALL_IN_ONE">    -1</i>
   <i type="int" name="NBANDS_WAVE">    -1</i>
   <i type="logical" name="LFINITE_TEMPERATURE"> F  </i>
   <i type="logical" name="LADDER"> F  </i>
   <i type="logical" name="LRPAFORCE"> F  </i>
   <i type="logical" name="LFXC"> F  </i>
   <i type="logical" name="LHARTREE"> T  </i>
   <i type="int" name="IBSE">     0</i>
   <v type="int" name="KPOINT">    -1     0     0     0</v>
   <i type="logical" name="LTCTC"> F  </i>
   <i type="logical" name="LTCTE"> F  </i>
   <i type="logical" name="LTETE"> F  </i>
   <i type="logical" name="LTRIPLET"> F  </i>
   <i type="logical" name="LFXCEPS"> F  </i>
   <i type="logical" name="LFXHEG"> F  </i>
   <i type="int" name="NATURALO">     2</i>
   <i type="logical" name="LHOLEGF"> F  </i>
   <i type="logical" name="L2ORDER"> F  </i>
   <i type="logical" name="LDMP1"> F  </i>
   <i type="logical" name="LMP2LT"> F  </i>
   <i type="logical" name="LSMP2LT"> F  </i>
   <i type="logical" name="LGWLF"> F  </i>
   <i name="ENCUTGW">     -1.60000002</i>
   <i name="ENCUTGWSOFT">     -1.60000002</i>
   <i name="ENCUTLF">     -1.00000000</i>
   <i type="logical" name="ESF_SPLINES"> F  </i>
   <i name="ESF_CONV">      0.01000000</i>
   <i type="int" name="ESF_NINTER">    15</i>
   <i type="int" name="LMAXMP2">    -1</i>
   <i name="SCISSOR">      0.00000000</i>
   <i type="int" name="NOMEGA">     0</i>
   <i type="int" name="NOMEGAR">     0</i>
   <i type="int" name="NBANDSGW">    -1</i>
   <i type="int" name="NBANDSO">    -1</i>
   <i type="int" name="NBANDSV">    -1</i>
   <i type="int" name="NELMGW">     1</i>
   <i type="int" name="NELMHF">     1</i>
   <i type="int" name="DIM">     3</i>
   <i type="int" name="IESPILON">     4</i>
   <i type="int" name="ANTIRES">     0</i>
   <i name="OMEGAMAX">    -30.00000000</i>
   <i name="OMEGAMIN">    -30.00000000</i>
   <i name="OMEGATL">   -200.00000000</i>
   <i type="int" name="OMEGAGRID">     0</i>
   <i name="CSHIFT">     -0.10000000</i>
   <i type="logical" name="LSELFENERGY"> F  </i>
   <i type="logical" name="LSPECTRAL"> F  </i>
   <i type="logical" name="LSPECTRALGW"> F  </i>
   <i type="logical" name="LSINGLES"> F  </i>
   <i type="logical" name="LFERMIGW"> F  </i>
   <i type="logical" name="ODDONLYGW"> F  </i>
   <i type="logical" name="EVENONLYGW"> F  </i>
   <i type="int" name="NKREDLFX">     1</i>
   <i type="int" name="NKREDLFY">     1</i>
   <i type="int" name="NKREDLFZ">     1</i>
   <i type="int" name="MAXMEM">  2800</i>
   <i type="int" name="TELESCOPE">     0</i>
   <i type="int" name="NTAUPAR">    -1</i>
   <i type="int" name="NOMEGAPAR">    -1</i>
   <i name="DAMP_NEWTON">      0.80000001</i>
   <i name="LAMBDA">      1.00000000</i>
  </separator>
  <separator name="External order field" >
   <i name="OFIELD_KAPPA">      0.00000000</i>
   <v name="OFIELD_K">      0.00000000      0.00000000      0.00000000</v>
   <i name="OFIELD_Q6_NEAR">      0.00000000</i>
   <i name="OFIELD_Q6_FAR">      0.00000000</i>
   <i name="OFIELD_A">      0.00000000</i>
  </separator>
  <separator name="optional k-points parameters" >
   <i type="int" name="KPOINTS_OPT_MODE">     1</i>
   <i type="logical" name="LKPOINTS_OPT"> F  </i>
  </separator>
 </parameters>
 <atominfo>
  <atoms>       1 </atoms>
  <types>       1 </types>
  <array name="atoms" >
   <dimension dim="1">ion</dimension>
   <field type="string">element</field>
   <field type="int">atomtype</field>
   <set>
    <rc><c>B </c><c>   1</c></rc>
   </set>
  </array>
  <array name="atomtypes" >
   <dimension dim="1">type</dimension>
   <field type="int">atomspertype</field>
   <field type="string">element</field>
   <field>mass</field>
   <field>valence</field>
   <field type="string">pseudopotential</field>
   <set>
    <rc><c>   1</c><c>B </c><c>     10.81100000</c><c>      3.00000000</c><c>  PAW_PBE B 06Sep2000                   </c></rc>
   </set>
  </array>
 </atominfo>
 <structure name="initialpos" >
  <crystal>
   <varray name="basis" >
    <v>      15.00000000       0.00000000       0.00000000 </v>
    <v>       0.00000000      12.50000000       0.00000000 </v>
    <v>       0.00000000       0.00000000      18.00000000 </v>
   </varray>
   <i name="volume">   3375.00000000 </i>
   <varray name="rec_basis" >
    <v>       0.06666667       0.00000000       0.00000000 </v>
    <v>       0.00000000       0.08000000       0.00000000 </v>
    <v>       0.00000000       0.00000000       0.05555556 </v>
   </varray>
  </crystal>
  <varray name="positions" >
   <v>       0.52123000       0.54500000       0.63796000 </v>
  </varray>
 </structure>
 <calculation>
  <scstep>
   <time name="dav">   30.46   30.56</time>
   <time name="total">   31.01   31.11</time>
   <energy>
    <i name="alphaZ">      0.02038373 </i>
    <i name="ewald">    -11.82901664 </i>
    <i name="hartreedc">    -42.58396533 </i>
    <i name="XCdc">      4.75549667 </i>
    <i name="pawpsdc">     43.49986551 </i>
    <i name="pawaedc">    -42.64454556 </i>
    <i name="eentropy">     -0.01022146 </i>
    <i name="bandstr">    -15.24598756 </i>
    <i name="atom">     71.16829886 </i>
    <i name="e_fr_energy">      7.13030821 </i>
    <i name="e_wo_entrp">      7.14052968 </i>
    <i name="e_0_energy">      7.13541895 </i>
   </energy>
  </scstep>
  <scstep>
   <time name="dav">   52.79   52.90</time>
   <time name="total">   52.79   52.90</time>
   <energy>
    <i name="e_fr_energy">      0.43864235 </i>
    <i name="e_wo_entrp">      0.44300903 </i>
    <i name="e_0_energy">      0.44082569 </i>
   </energy>
  </scstep>
  <scstep>
   <time name="dav">   32.82   32.95</time>
   <time name="total">   32.82   32.95</time>
   <energy>
    <i name="e_fr_energy">     -0.03543847 </i>
    <i name="e_wo_entrp">      0.00826967 </i>
    <i name="e_0_energy">     -0.01358440 </i>
   </energy>
  </scstep>
  <scstep>
   <time name="dav">   36.57   36.67</time>
   <time name="total">   36.57   36.67</time>
   <energy>
    <i name="e_fr_energy">     -0.05724559 </i>
    <i name="e_wo_entrp">     -0.00427494 </i>
    <i name="e_0_energy">     -0.03076027 </i>
   </energy>
  </scstep>
  <scstep>
   <time name="dav">   34.72   34.82</time>
   <time name="total">   38.18   38.28</time>
   <energy>
    <i name="e_fr_energy">     -0.05821629 </i>
    <i name="e_wo_entrp">     -0.00521502 </i>
    <i name="e_0_energy">     -0.03171565 </i>
   </energy>
  </scstep>
  <scstep>
   <time name="dav">   47.26   47.36</time>
   <time name="total">   53.56   53.67</time>
   <energy>
    <i name="e_fr_energy">     -0.05825250 </i>
    <i name="e_wo_entrp">     -0.00525116 </i>
    <i name="e_0_energy">     -0.03175183 </i>
   </energy>
  </scstep>
  <scstep>
   <time name="dav">   35.87   35.97</time>
   <time name="total">   40.39   40.50</time>
   <energy>
    <i name="e_fr_energy">     -0.05825622 </i>
    <i name="e_wo_entrp">     -0.00525488 </i>
    <i name="e_0_energy">     -0.03175555 </i>
   </energy>
  </scstep>
  <scstep>
   <time name="dav">   43.68   43.79</time>
   <time name="total">   49.01   49.13</time>
   <energy>
    <i name="e_fr_energy">     -0.05825856 </i>
    <i name="e_wo_entrp">     -0.00525722 </i>
    <i name="e_0_energy">     -0.03175789 </i>
   </energy>
  </scstep>
  <scstep>
   <time name="dav">   41.26   41.36</time>
   <time name="total">   41.76   41.86</time>
   <energy>
    <i name="alphaZ">      0.02038373 </i>
    <i name="ewald">    -11.82901664 </i>
    <i name="hartreedc">    -42.58313258 </i>
    <i name="XCdc">      4.75528254 </i>
    <i name="pawpsdc">     43.61644965 </i>
    <i name="pawaedc">    -42.76156948 </i>
    <i name="eentropy">     -0.05300134 </i>
    <i name="bandstr">    -22.39195331 </i>
    <i name="atom">     71.16829886 </i>
    <i name="e_fr_energy">     -0.05825858 </i>
    <i name="e_wo_entrp">     -0.00525724 </i>
    <i name="e_0_energy">     -0.03175791 </i>
   </energy>
  </scstep>
  <structure>
   <crystal>
    <varray name="basis" >
     <v>      15.00000000       0.00000000       0.00000000 </v>
     <v>       0.00000000      12.50000000       0.00000000 </v>
     <v>       0.00000000       0.00000000      18.00000000 </v>
    </varray>
    <i name="volume">   3375.00000000 </i>
    <varray name="rec_basis" >
     <v>       0.06666667       0.00000000       0.00000000 </v>
     <v>       0.00000000       0.08000000       0.00000000 </v>
     <v>       0.00000000       0.00000000       0.05555556 </v>
    </varray>
   </crystal>
   <varray name="positions" >
    <v>       0.52123000       0.54500000       0.63796000 </v>
   </varray>
  </structure>
  <varray name="forces" >
   <v>      -0.00000000      -0.00000000      -0.00000000 </v>
  </varray>
  <varray name="stress" >
   <v>      -0.00223916       0.00000000       0.00000000 </v>
   <v>       0.00000000      -0.00224378       0.00000000 </v>
   <v>       0.00000000       0.00000000      -0.00225280 </v>
  </varray>
  <energy>
   <i name="e_fr_energy">     -0.05825858 </i>
   <i name="e_wo_entrp">     -0.00525724 </i>
   <i name="e_0_energy">     -0.03175791 </i>
  </energy>
  <time name="totalsc">  419.10  420.11</time>
  <eigenvalues>
   <array>
    <dimension dim="1">band</dimension>
    <dimension dim="2">kpoint</dimension>
    <dimension dim="3">spin</dimension>
    <field>eigene</field>
    <field>occ</field>
    <set>
     <set comment="spin 1">
      <set comment="kpoint 1">
       <r>   -9.4097    1.0000 </r>
       <r>   -3.5726    0.1667 </r>
       <r>   -3.5726    0.1667 </r>
       <r>   -3.5725    0.1659 </r>
       <r>   -0.2617    0.0000 </r>
       <r>    0.2957    0.0000 </r>
       <r>    0.3100    0.0000 </r>
       <r>    0.4399    0.0000 </r>
      </set>
      <set comment="kpoint 2">
       <r>   -9.4097    1.0000 </r>
       <r>   -3.5726    0.1667 </r>
       <r>   -3.5726    0.1667 </r>
       <r>   -3.5725    0.1659 </r>
       <r>   -0.2518    0.0000 </r>
       <r>    0.2695    0.0000 </r>
       <r>    0.3213    0.0000 </r>
       <r>    0.3757    0.0000 </r>
      </set>
      <set comment="kpoint 3">
       <r>   -9.4097    1.0000 </r>
       <r>   -3.5726    0.1667 </r>
       <r>   -3.5726    0.1667 </r>
       <r>   -3.5725    0.1659 </r>
       <r>   -0.2337    0.0000 </r>
       <r>    0.1994    0.0000 </r>
       <r>    0.3429    0.0000 </r>
       <r>    0.3782    0.0000 </r>
      </set>
      <set comment="kpoint 4">
       <r>   -9.4097    1.0000 </r>
       <r>   -3.5726    0.1668 </r>
       <r>   -3.5726    0.1667 </r>
       <r>   -3.5725    0.1659 </r>
       <r>   -0.2115    0.0000 </r>
       <r>    0.1316    0.0000 </r>
       <r>    0.3720    0.0000 </r>
       <r>    0.4097    0.0000 </r>
      </set>
      <set comment="kpoint 5">
       <r>   -9.4097    1.0000 </r>
       <r>   -3.5726    0.1668 </r>
       <r>   -3.5726    0.1667 </r>
       <r>   -3.5725    0.1659 </r>
       <r>   -0.1945    0.0000 </r>
       <r>    0.0905    0.0000 </r>
       <r>    0.3984    0.0000 </r>
       <r>    0.4487    0.0000 </r>
      </set>
      <set comment="kpoint 6">
       <r>   -9.4097    1.0000 </r>
       <r>   -3.5726    0.1667 </r>
       <r>   -3.5726    0.1667 </r>
       <r>   -3.5725    0.1660 </r>
       <r>   -0.2526    0.0000 </r>
       <r>    0.3038    0.0000 </r>
       <r>    0.3190    0.0000 </r>
       <r>    0.4488    0.0000 </r>
      </set>
      <set comment="kpoint 7">
       <r>   -9.4097    1.0000 </r>
       <r>   -3.5726    0.1667 </r>
       <r>   -3.5726    0.1667 </r>
       <r>   -3.5725    0.1660 </r>
       <r>   -0.2427    0.0000 </r>
       <r>    0.2779    0.0000 </r>
       <r>    0.3302    0.0000 </r>
       <r>    0.3846    0.0000 </r>
      </set>
      <set comment="kpoint 8">
       <r>   -9.4097    1.0000 </r>
       <r>   -3.5726    0.1667 </r>
       <r>   -3.5726    0.1667 </r>
       <r>   -3.5725    0.1660 </r>
       <r>   -0.2246    0.0000 </r>
       <r>    0.2084    0.0000 </r>
       <r>    0.3518    0.0000 </r>
       <r>    0.3867    0.0000 </r>
      </set>
      <set comment="kpoint 9">
       <r>   -9.4097    1.0000 </r>
       <r>   -3.5726    0.1668 </r>
       <r>   -3.5726    0.1667 </r>
       <r>   -3.5725    0.1660 </r>
       <r>   -0.2025    0.0000 </r>
       <r>    0.1409    0.0000 </r>
       <r>    0.3808    0.0000 </r>
       <r>    0.4181    0.0000 </r>
      </set>
      <set comment="kpoint 10">
       <r>   -9.4097    1.0000 </r>
       <r>   -3.5726    0.1668 </r>
       <r>   -3.5726    0.1667 </r>
       <r>   -3.5725    0.1660 </r>
       <r>   -0.1855    0.0000 </r>
       <r>    0.0999    0.0000 </r>
       <r>    0.4071    0.0000 </r>
       <r>    0.4570    0.0000 </r>
      </set>
      <set comment="kpoint 11">
       <r>   -9.4097    1.0000 </r>
       <r>   -3.5726    0.1667 </r>
       <r>   -3.5726    0.1666 </r>
       <r>   -3.5726    0.1663 </r>
       <r>   -0.2346    0.0000 </r>
       <r>    0.3166    0.0000 </r>
       <r>    0.3368    0.0000 </r>
       <r>    0.4622    0.0000 </r>
      </set>
      <set comment="kpoint 12">
       <r>   -9.4097    1.0000 </r>
       <r>   -3.5726    0.1667 </r>
       <r>   -3.5726    0.1667 </r>
       <r>   -3.5726    0.1663 </r>
       <r>   -0.2248    0.0000 </r>
       <r>    0.2931    0.0000 </r>
       <r>    0.3480    0.0000 </r>
       <r>    0.4009    0.0000 </r>
      </set>
      <set comment="kpoint 13">
       <r>   -9.4097    1.0000 </r>
       <r>   -3.5726    0.1667 </r>
       <r>   -3.5726    0.1667 </r>
       <r>   -3.5726    0.1663 </r>
       <r>   -0.2068    0.0000 </r>
       <r>    0.2261    0.0000 </r>
       <r>    0.3694    0.0000 </r>
       <r>    0.4006    0.0000 </r>
      </set>
      <set comment="kpoint 14">
       <r>   -9.4097    1.0000 </r>
       <r>   -3.5726    0.1667 </r>
       <r>   -3.5726    0.1667 </r>
       <r>   -3.5726    0.1663 </r>
       <r>   -0.1848    0.0000 </r>
       <r>    0.1593    0.0000 </r>
       <r>    0.3982    0.0000 </r>
       <r>    0.4308    0.0000 </r>
      </set>
      <set comment="kpoint 15">
       <r>   -9.4097    1.0000 </r>
       <r>   -3.5726    0.1667 </r>
       <r>   -3.5726    0.1667 </r>
       <r>   -3.5726    0.1663 </r>
       <r>   -0.1679    0.0000 </r>
       <r>    0.1186    0.0000 </r>
       <r>    0.4242    0.0000 </r>
       <r>    0.4677    0.0000 </r>
      </set>
      <set comment="kpoint 16">
       <r>   -9.4097    1.0000 </r>
       <r>   -3.5726    0.1667 </r>
       <r>   -3.5726    0.1667 </r>
       <r>   -3.5726    0.1666 </r>
       <r>   -0.2087    0.0000 </r>
       <r>    0.3079    0.0000 </r>
       <r>    0.3632    0.0000 </r>
       <r>    0.4007    0.0000 </r>
      </set>
      <set comment="kpoint 17">
       <r>   -9.4097    1.0000 </r>
       <r>   -3.5726    0.1667 </r>
       <r>   -3.5726    0.1667 </r>
       <r>   -3.5726    0.1666 </r>
       <r>   -0.1989    0.0000 </r>
       <r>    0.3009    0.0000 </r>
       <r>    0.3743    0.0000 </r>
       <r>    0.3847    0.0000 </r>
      </set>
      <set comment="kpoint 18">
       <r>   -9.4097    1.0000 </r>
       <r>   -3.5726    0.1667 </r>
       <r>   -3.5726    0.1667 </r>
       <r>   -3.5726    0.1667 </r>
       <r>   -0.1810    0.0000 </r>
       <r>    0.2501    0.0000 </r>
       <r>    0.3749    0.0000 </r>
       <r>    0.3955    0.0000 </r>
      </set>
      <set comment="kpoint 19">
       <r>   -9.4097    1.0000 </r>
       <r>   -3.5726    0.1667 </r>
       <r>   -3.5726    0.1667 </r>
       <r>   -3.5726    0.1667 </r>
       <r>   -0.1593    0.0000 </r>
       <r>    0.1864    0.0000 </r>
       <r>    0.3975    0.0000 </r>
       <r>    0.4239    0.0000 </r>
      </set>
      <set comment="kpoint 20">
       <r>   -9.4097    1.0000 </r>
       <r>   -3.5726    0.1667 </r>
       <r>   -3.5726    0.1667 </r>
       <r>   -3.5726    0.1667 </r>
       <r>   -0.1427    0.0000 </r>
       <r>    0.1466    0.0000 </r>
       <r>    0.4221    0.0000 </r>
       <r>    0.4493    0.0000 </r>
      </set>
      <set comment="kpoint 21">
       <r>   -9.4097    1.0000 </r>
       <r>   -3.5727    0.1670 </r>
       <r>   -3.5726    0.1666 </r>
       <r>   -3.5726    0.1666 </r>
       <r>   -0.1765    0.0000 </r>
       <r>    0.2433    0.0000 </r>
       <r>    0.3974    0.0000 </r>
       <r>    0.4153    0.0000 </r>
      </set>
      <set comment="kpoint 22">
       <r>   -9.4097    1.0000 </r>
       <r>   -3.5727    0.1670 </r>
       <r>   -3.5726    0.1666 </r>
       <r>   -3.5726    0.1666 </r>
       <r>   -0.1669    0.0000 </r>
       <r>    0.2522    0.0000 </r>
       <r>    0.3847    0.0000 </r>
       <r>    0.4083    0.0000 </r>
      </set>
      <set comment="kpoint 23">
       <r>   -9.4097    1.0000 </r>
       <r>   -3.5727    0.1670 </r>
       <r>   -3.5726    0.1666 </r>
       <r>   -3.5726    0.1666 </r>
       <r>   -0.1493    0.0000 </r>
       <r>    0.2586    0.0000 </r>
       <r>    0.3217    0.0000 </r>
       <r>    0.4292    0.0000 </r>
      </set>
      <set comment="kpoint 24">
       <r>   -9.4097    1.0000 </r>
       <r>   -3.5727    0.1670 </r>
       <r>   -3.5726    0.1667 </r>
       <r>   -3.5726    0.1666 </r>
       <r>   -0.1280    0.0000 </r>
       <r>    0.2200    0.0000 </r>
       <r>    0.3196    0.0000 </r>
       <r>    0.4569    0.0000 </r>
      </set>
      <set comment="kpoint 25">
       <r>   -9.4097    1.0000 </r>
       <r>   -3.5727    0.1670 </r>
       <r>   -3.5726    0.1667 </r>
       <r>   -3.5726    0.1666 </r>
       <r>   -0.1119    0.0000 </r>
       <r>    0.1832    0.0000 </r>
       <r>    0.3407    0.0000 </r>
       <r>    0.4814    0.0000 </r>
      </set>
      <set comment="kpoint 26">
       <r>   -9.4097    1.0000 </r>
       <r>   -3.5727    0.1673 </r>
       <r>   -3.5726    0.1666 </r>
       <r>   -3.5726    0.1666 </r>
       <r>   -0.1425    0.0000 </r>
       <r>    0.1762    0.0000 </r>
       <r>    0.4369    0.0000 </r>
       <r>    0.4577    0.0000 </r>
      </set>
      <set comment="kpoint 27">
       <r>   -9.4097    1.0000 </r>
       <r>   -3.5727    0.1673 </r>
       <r>   -3.5726    0.1666 </r>
       <r>   -3.5726    0.1666 </r>
       <r>   -0.1331    0.0000 </r>
       <r>    0.1873    0.0000 </r>
       <r>    0.4222    0.0000 </r>
       <r>    0.4476    0.0000 </r>
      </set>
      <set comment="kpoint 28">
       <r>   -9.4097    1.0000 </r>
       <r>   -3.5727    0.1673 </r>
       <r>   -3.5726    0.1666 </r>
       <r>   -3.5726    0.1666 </r>
       <r>   -0.1160    0.0000 </r>
       <r>    0.2081    0.0000 </r>
       <r>    0.3449    0.0000 </r>
       <r>    0.4678    0.0000 </r>
      </set>
      <set comment="kpoint 29">
       <r>   -9.4097    1.0000 </r>
       <r>   -3.5727    0.1673 </r>
       <r>   -3.5726    0.1666 </r>
       <r>   -3.5726    0.1666 </r>
       <r>   -0.0955    0.0000 </r>
       <r>    0.2322    0.0000 </r>
       <r>    0.2817    0.0000 </r>
       <r>    0.4964    0.0000 </r>
      </set>
      <set comment="kpoint 30">
       <r>   -9.4097    1.0000 </r>
       <r>   -3.5727    0.1673 </r>
       <r>   -3.5726    0.1667 </r>
       <r>   -3.5726    0.1666 </r>
       <r>   -0.0803    0.0000 </r>
       <r>    0.2265    0.0000 </r>
       <r>    0.2734    0.0000 </r>
       <r>    0.4475    0.0000 </r>
      </set>
      <set comment="kpoint 31">
       <r>   -9.4097    1.0000 </r>
       <r>   -3.5727    0.1675 </r>
       <r>   -3.5726    0.1666 </r>
       <r>   -3.5726    0.1666 </r>
       <r>   -0.1173    0.0000 </r>
       <r>    0.1334    0.0000 </r>
       <r>    0.4719    0.0000 </r>
       <r>    0.5061    0.0000 </r>
      </set>
      <set comment="kpoint 32">
       <r>   -9.4097    1.0000 </r>
       <r>   -3.5727    0.1675 </r>
       <r>   -3.5726    0.1666 </r>
       <r>   -3.5726    0.1666 </r>
       <r>   -0.1082    0.0000 </r>
       <r>    0.1451    0.0000 </r>
       <r>    0.4623    0.0000 </r>
       <r>    0.4821    0.0000 </r>
      </set>
      <set comment="kpoint 33">
       <r>   -9.4097    1.0000 </r>
       <r>   -3.5727    0.1675 </r>
       <r>   -3.5726    0.1666 </r>
       <r>   -3.5726    0.1666 </r>
       <r>   -0.0917    0.0000 </r>
       <r>    0.1677    0.0000 </r>
       <r>    0.3819    0.0000 </r>
       <r>    0.5017    0.0000 </r>
      </set>
      <set comment="kpoint 34">
       <r>   -9.4097    1.0000 </r>
       <r>   -3.5727    0.1675 </r>
       <r>   -3.5726    0.1666 </r>
       <r>   -3.5726    0.1666 </r>
       <r>   -0.0721    0.0000 </r>
       <r>    0.1990    0.0000 </r>
       <r>    0.3140    0.0000 </r>
       <r>    0.4384    0.0000 </r>
      </set>
      <set comment="kpoint 35">
       <r>   -9.4097    1.0000 </r>
       <r>   -3.5727    0.1675 </r>
       <r>   -3.5726    0.1667 </r>
       <r>   -3.5726    0.1666 </r>
       <r>   -0.0578    0.0000 </r>
       <r>    0.2296    0.0000 </r>
       <r>    0.2736    0.0000 </r>
       <r>    0.3851    0.0000 </r>
      </set>
      <set comment="kpoint 36">
       <r>   -9.4097    1.0000 </r>
       <r>   -3.5726    0.1667 </r>
       <r>   -3.5726    0.1667 </r>
       <r>   -3.5725    0.1659 </r>
       <r>   -0.2587    0.0000 </r>
       <r>    0.2186    0.0000 </r>
       <r>    0.3883    0.0000 </r>
       <r>    0.4533    0.0000 </r>
      </set>
      <set comment="kpoint 37">
       <r>   -9.4097    1.0000 </r>
       <r>   -3.5726    0.1667 </r>
       <r>   -3.5726    0.1667 </r>
       <r>   -3.5725    0.1659 </r>
       <r>   -0.2489    0.0000 </r>
       <r>    0.2238    0.0000 </r>
       <r>    0.3194    0.0000 </r>
       <r>    0.4398    0.0000 </r>
      </set>
      <set comment="kpoint 38">
       <r>   -9.4097    1.0000 </r>
       <r>   -3.5726    0.1667 </r>
       <r>   -3.5726    0.1667 </r>
       <r>   -3.5725    0.1659 </r>
       <r>   -0.2308    0.0000 </r>
       <r>    0.1974    0.0000 </r>
       <r>    0.2799    0.0000 </r>
       <r>    0.4596    0.0000 </r>
      </set>
      <set comment="kpoint 39">
       <r>   -9.4097    1.0000 </r>
       <r>   -3.5726    0.1668 </r>
       <r>   -3.5726    0.1667 </r>
       <r>   -3.5725    0.1659 </r>
       <r>   -0.2088    0.0000 </r>
       <r>    0.1356    0.0000 </r>
       <r>    0.3026    0.0000 </r>
       <r>    0.4883    0.0000 </r>
      </set>
      <set comment="kpoint 40">
       <r>   -9.4097    1.0000 </r>
       <r>   -3.5726    0.1668 </r>
       <r>   -3.5726    0.1667 </r>
       <r>   -3.5725    0.1659 </r>
       <r>   -0.1920    0.0000 </r>
       <r>    0.0954    0.0000 </r>
       <r>    0.3332    0.0000 </r>
       <r>    0.4722    0.0000 </r>
      </set>
      <set comment="kpoint 41">
       <r>   -9.4097    1.0000 </r>
       <r>   -3.5726    0.1667 </r>
       <r>   -3.5726    0.1667 </r>
       <r>   -3.5725    0.1660 </r>
       <r>   -0.2495    0.0000 </r>
       <r>    0.2276    0.0000 </r>
       <r>    0.3958    0.0000 </r>
       <r>    0.4620    0.0000 </r>
      </set>
      <set comment="kpoint 42">
       <r>   -9.4097    1.0000 </r>
       <r>   -3.5726    0.1667 </r>
       <r>   -3.5726    0.1667 </r>
       <r>   -3.5725    0.1660 </r>
       <r>   -0.2397    0.0000 </r>
       <r>    0.2327    0.0000 </r>
       <r>    0.3282    0.0000 </r>
       <r>    0.4477    0.0000 </r>
      </set>
      <set comment="kpoint 43">
       <r>   -9.4097    1.0000 </r>
       <r>   -3.5726    0.1667 </r>
       <r>   -3.5726    0.1667 </r>
       <r>   -3.5725    0.1660 </r>
       <r>   -0.2217    0.0000 </r>
       <r>    0.2064    0.0000 </r>
       <r>    0.2891    0.0000 </r>
       <r>    0.4674    0.0000 </r>
      </set>
      <set comment="kpoint 44">
       <r>   -9.4097    1.0000 </r>
       <r>   -3.5726    0.1668 </r>
       <r>   -3.5726    0.1667 </r>
       <r>   -3.5725    0.1660 </r>
       <r>   -0.1998    0.0000 </r>
       <r>    0.1449    0.0000 </r>
       <r>    0.3116    0.0000 </r>
       <r>    0.4960    0.0000 </r>
      </set>
      <set comment="kpoint 45">
       <r>   -9.4097    1.0000 </r>
       <r>   -3.5726    0.1668 </r>
       <r>   -3.5726    0.1667 </r>
       <r>   -3.5725    0.1660 </r>
       <r>   -0.1830    0.0000 </r>
       <r>    0.1048    0.0000 </r>
       <r>    0.3421    0.0000 </r>
       <r>    0.4814    0.0000 </r>
      </set>
      <set comment="kpoint 46">
       <r>   -9.4097    1.0000 </r>
       <r>   -3.5726    0.1667 </r>
       <r>   -3.5726    0.1666 </r>
       <r>   -3.5726    0.1663 </r>
       <r>   -0.2316    0.0000 </r>
       <r>    0.2449    0.0000 </r>
       <r>    0.4024    0.0000 </r>
       <r>    0.4714    0.0000 </r>
      </set>
      <set comment="kpoint 47">
       <r>   -9.4097    1.0000 </r>
       <r>   -3.5726    0.1667 </r>
       <r>   -3.5726    0.1667 </r>
       <r>   -3.5726    0.1663 </r>
       <r>   -0.2219    0.0000 </r>
       <r>    0.2499    0.0000 </r>
       <r>    0.3452    0.0000 </r>
       <r>    0.4499    0.0000 </r>
      </set>
      <set comment="kpoint 48">
       <r>   -9.4097    1.0000 </r>
       <r>   -3.5726    0.1667 </r>
       <r>   -3.5726    0.1667 </r>
       <r>   -3.5726    0.1663 </r>
       <r>   -0.2039    0.0000 </r>
       <r>    0.2241    0.0000 </r>
       <r>    0.3072    0.0000 </r>
       <r>    0.4674    0.0000 </r>
      </set>
      <set comment="kpoint 49">
       <r>   -9.4097    1.0000 </r>
       <r>   -3.5726    0.1667 </r>
       <r>   -3.5726    0.1667 </r>
       <r>   -3.5726    0.1663 </r>
       <r>   -0.1821    0.0000 </r>
       <r>    0.1633    0.0000 </r>
       <r>    0.3294    0.0000 </r>
       <r>    0.4958    0.0000 </r>
      </set>
      <set comment="kpoint 50">
       <r>   -9.4097    1.0000 </r>
       <r>   -3.5726    0.1667 </r>
       <r>   -3.5726    0.1667 </r>
       <r>   -3.5726    0.1663 </r>
       <r>   -0.1654    0.0000 </r>
       <r>    0.1235    0.0000 </r>
       <r>    0.3595    0.0000 </r>
       <r>    0.4996    0.0000 </r>
      </set>
      <set comment="kpoint 51">
       <r>   -9.4097    1.0000 </r>
       <r>   -3.5726    0.1667 </r>
       <r>   -3.5726    0.1667 </r>
       <r>   -3.5726    0.1666 </r>
       <r>   -0.2057    0.0000 </r>
       <r>    0.2661    0.0000 </r>
       <r>    0.3519    0.0000 </r>
       <r>    0.4585    0.0000 </r>
      </set>
      <set comment="kpoint 52">
       <r>   -9.4097    1.0000 </r>
       <r>   -3.5726    0.1667 </r>
       <r>   -3.5726    0.1667 </r>
       <r>   -3.5726    0.1666 </r>
       <r>   -0.1960    0.0000 </r>
       <r>    0.2707    0.0000 </r>
       <r>    0.3559    0.0000 </r>
       <r>    0.3904    0.0000 </r>
      </set>
      <set comment="kpoint 53">
       <r>   -9.4097    1.0000 </r>
       <r>   -3.5726    0.1667 </r>
       <r>   -3.5726    0.1667 </r>
       <r>   -3.5726    0.1667 </r>
       <r>   -0.1782    0.0000 </r>
       <r>    0.2482    0.0000 </r>
       <r>    0.3333    0.0000 </r>
       <r>    0.3894    0.0000 </r>
      </set>
      <set comment="kpoint 54">
       <r>   -9.4097    1.0000 </r>
       <r>   -3.5726    0.1667 </r>
       <r>   -3.5726    0.1667 </r>
       <r>   -3.5726    0.1667 </r>
       <r>   -0.1567    0.0000 </r>
       <r>    0.1904    0.0000 </r>
       <r>    0.3530    0.0000 </r>
       <r>    0.4157    0.0000 </r>
      </set>
      <set comment="kpoint 55">
       <r>   -9.4097    1.0000 </r>
       <r>   -3.5726    0.1667 </r>
       <r>   -3.5726    0.1667 </r>
       <r>   -3.5726    0.1667 </r>
       <r>   -0.1402    0.0000 </r>
       <r>    0.1514    0.0000 </r>
       <r>    0.3818    0.0000 </r>
       <r>    0.4395    0.0000 </r>
      </set>
      <set comment="kpoint 56">
       <r>   -9.4097    1.0000 </r>
       <r>   -3.5727    0.1670 </r>
       <r>   -3.5726    0.1666 </r>
       <r>   -3.5726    0.1666 </r>
       <r>   -0.1736    0.0000 </r>
       <r>    0.2435    0.0000 </r>
       <r>    0.3273    0.0000 </r>
       <r>    0.4896    0.0000 </r>
      </set>
      <set comment="kpoint 57">
       <r>   -9.4097    1.0000 </r>
       <r>   -3.5727    0.1670 </r>
       <r>   -3.5726    0.1666 </r>
       <r>   -3.5726    0.1666 </r>
       <r>   -0.1641    0.0000 </r>
       <r>    0.2522    0.0000 </r>
       <r>    0.3365    0.0000 </r>
       <r>    0.4126    0.0000 </r>
      </set>
      <set comment="kpoint 58">
       <r>   -9.4097    1.0000 </r>
       <r>   -3.5727    0.1670 </r>
       <r>   -3.5726    0.1666 </r>
       <r>   -3.5726    0.1666 </r>
       <r>   -0.1466    0.0000 </r>
       <r>    0.2591    0.0000 </r>
       <r>    0.3249    0.0000 </r>
       <r>    0.3717    0.0000 </r>
      </set>
      <set comment="kpoint 59">
       <r>   -9.4097    1.0000 </r>
       <r>   -3.5727    0.1670 </r>
       <r>   -3.5726    0.1667 </r>
       <r>   -3.5726    0.1666 </r>
       <r>   -0.1255    0.0000 </r>
       <r>    0.2239    0.0000 </r>
       <r>    0.3223    0.0000 </r>
       <r>    0.3981    0.0000 </r>
      </set>
      <set comment="kpoint 60">
       <r>   -9.4097    1.0000 </r>
       <r>   -3.5727    0.1670 </r>
       <r>   -3.5726    0.1667 </r>
       <r>   -3.5726    0.1666 </r>
       <r>   -0.1095    0.0000 </r>
       <r>    0.1880    0.0000 </r>
       <r>    0.3427    0.0000 </r>
       <r>    0.4274    0.0000 </r>
      </set>
      <set comment="kpoint 61">
       <r>   -9.4097    1.0000 </r>
       <r>   -3.5727    0.1673 </r>
       <r>   -3.5726    0.1666 </r>
       <r>   -3.5726    0.1666 </r>
       <r>   -0.1398    0.0000 </r>
       <r>    0.1801    0.0000 </r>
       <r>    0.3637    0.0000 </r>
       <r>    0.5296    0.0000 </r>
      </set>
      <set comment="kpoint 62">
       <r>   -9.4097    1.0000 </r>
       <r>   -3.5727    0.1673 </r>
       <r>   -3.5726    0.1666 </r>
       <r>   -3.5726    0.1666 </r>
       <r>   -0.1304    0.0000 </r>
       <r>    0.1911    0.0000 </r>
       <r>    0.3711    0.0000 </r>
       <r>    0.4521    0.0000 </r>
      </set>
      <set comment="kpoint 63">
       <r>   -9.4097    1.0000 </r>
       <r>   -3.5727    0.1673 </r>
       <r>   -3.5726    0.1666 </r>
       <r>   -3.5726    0.1666 </r>
       <r>   -0.1135    0.0000 </r>
       <r>    0.2119    0.0000 </r>
       <r>    0.3451    0.0000 </r>
       <r>    0.4124    0.0000 </r>
      </set>
      <set comment="kpoint 64">
       <r>   -9.4097    1.0000 </r>
       <r>   -3.5727    0.1673 </r>
       <r>   -3.5726    0.1666 </r>
       <r>   -3.5726    0.1666 </r>
       <r>   -0.0931    0.0000 </r>
       <r>    0.2360    0.0000 </r>
       <r>    0.2857    0.0000 </r>
       <r>    0.4371    0.0000 </r>
      </set>
      <set comment="kpoint 65">
       <r>   -9.4097    1.0000 </r>
       <r>   -3.5727    0.1673 </r>
       <r>   -3.5726    0.1667 </r>
       <r>   -3.5726    0.1666 </r>
       <r>   -0.0780    0.0000 </r>
       <r>    0.2311    0.0000 </r>
       <r>    0.2770    0.0000 </r>
       <r>    0.4520    0.0000 </r>
      </set>
      <set comment="kpoint 66">
       <r>   -9.4097    1.0000 </r>
       <r>   -3.5727    0.1675 </r>
       <r>   -3.5726    0.1666 </r>
       <r>   -3.5726    0.1666 </r>
       <r>   -0.1147    0.0000 </r>
       <r>    0.1378    0.0000 </r>
       <r>    0.4044    0.0000 </r>
       <r>    0.5248    0.0000 </r>
      </set>
      <set comment="kpoint 67">
       <r>   -9.4097    1.0000 </r>
       <r>   -3.5727    0.1675 </r>
       <r>   -3.5726    0.1666 </r>
       <r>   -3.5726    0.1666 </r>
       <r>   -0.1057    0.0000 </r>
       <r>    0.1495    0.0000 </r>
       <r>    0.4113    0.0000 </r>
       <r>    0.4883    0.0000 </r>
      </set>
      <set comment="kpoint 68">
       <r>   -9.4097    1.0000 </r>
       <r>   -3.5727    0.1675 </r>
       <r>   -3.5726    0.1666 </r>
       <r>   -3.5726    0.1666 </r>
       <r>   -0.0893    0.0000 </r>
       <r>    0.1721    0.0000 </r>
       <r>    0.3818    0.0000 </r>
       <r>    0.4510    0.0000 </r>
      </set>
      <set comment="kpoint 69">
       <r>   -9.4097    1.0000 </r>
       <r>   -3.5727    0.1675 </r>
       <r>   -3.5726    0.1666 </r>
       <r>   -3.5726    0.1666 </r>
       <r>   -0.0699    0.0000 </r>
       <r>    0.2032    0.0000 </r>
       <r>    0.3178    0.0000 </r>
       <r>    0.4427    0.0000 </r>
      </set>
      <set comment="kpoint 70">
       <r>   -9.4097    1.0000 </r>
       <r>   -3.5727    0.1675 </r>
       <r>   -3.5726    0.1667 </r>
       <r>   -3.5726    0.1666 </r>
       <r>   -0.0557    0.0000 </r>
       <r>    0.2334    0.0000 </r>
       <r>    0.2780    0.0000 </r>
       <r>    0.3903    0.0000 </r>
      </set>
      <set comment="kpoint 71">
       <r>   -9.4097    1.0000 </r>
       <r>   -3.5726    0.1667 </r>
       <r>   -3.5726    0.1667 </r>
       <r>   -3.5725    0.1659 </r>
       <r>   -0.2504    0.0000 </r>
       <r>    0.1475    0.0000 </r>
       <r>    0.4332    0.0000 </r>
       <r>    0.5162    0.0000 </r>
      </set>
      <set comment="kpoint 72">
       <r>   -9.4097    1.0000 </r>
       <r>   -3.5726    0.1667 </r>
       <r>   -3.5726    0.1667 </r>
       <r>   -3.5725    0.1659 </r>
       <r>   -0.2408    0.0000 </r>
       <r>    0.1580    0.0000 </r>
       <r>    0.3301    0.0000 </r>
       <r>    0.5410    0.0000 </r>
      </set>
      <set comment="kpoint 73">
       <r>   -9.4097    1.0000 </r>
       <r>   -3.5726    0.1667 </r>
       <r>   -3.5726    0.1667 </r>
       <r>   -3.5725    0.1659 </r>
       <r>   -0.2231    0.0000 </r>
       <r>    0.1722    0.0000 </r>
       <r>    0.2470    0.0000 </r>
       <r>    0.5292    0.0000 </r>
      </set>
      <set comment="kpoint 74">
       <r>   -9.4097    1.0000 </r>
       <r>   -3.5726    0.1668 </r>
       <r>   -3.5726    0.1667 </r>
       <r>   -3.5725    0.1659 </r>
       <r>   -0.2016    0.0000 </r>
       <r>    0.1460    0.0000 </r>
       <r>    0.2345    0.0000 </r>
       <r>    0.4524    0.0000 </r>
      </set>
      <set comment="kpoint 75">
       <r>   -9.4097    1.0000 </r>
       <r>   -3.5726    0.1668 </r>
       <r>   -3.5726    0.1667 </r>
       <r>   -3.5725    0.1659 </r>
       <r>   -0.1853    0.0000 </r>
       <r>    0.1096    0.0000 </r>
       <r>    0.2636    0.0000 </r>
       <r>    0.3929    0.0000 </r>
      </set>
      <set comment="kpoint 76">
       <r>   -9.4097    1.0000 </r>
       <r>   -3.5726    0.1667 </r>
       <r>   -3.5726    0.1667 </r>
       <r>   -3.5725    0.1660 </r>
       <r>   -0.2414    0.0000 </r>
       <r>    0.1567    0.0000 </r>
       <r>    0.4408    0.0000 </r>
       <r>    0.5200    0.0000 </r>
      </set>
      <set comment="kpoint 77">
       <r>   -9.4097    1.0000 </r>
       <r>   -3.5726    0.1667 </r>
       <r>   -3.5726    0.1667 </r>
       <r>   -3.5725    0.1660 </r>
       <r>   -0.2317    0.0000 </r>
       <r>    0.1672    0.0000 </r>
       <r>    0.3389    0.0000 </r>
       <r>    0.5441    0.0000 </r>
      </set>
      <set comment="kpoint 78">
       <r>   -9.4097    1.0000 </r>
       <r>   -3.5726    0.1667 </r>
       <r>   -3.5726    0.1667 </r>
       <r>   -3.5725    0.1660 </r>
       <r>   -0.2140    0.0000 </r>
       <r>    0.1814    0.0000 </r>
       <r>    0.2561    0.0000 </r>
       <r>    0.5376    0.0000 </r>
      </set>
      <set comment="kpoint 79">
       <r>   -9.4097    1.0000 </r>
       <r>   -3.5726    0.1667 </r>
       <r>   -3.5726    0.1667 </r>
       <r>   -3.5725    0.1660 </r>
       <r>   -0.1926    0.0000 </r>
       <r>    0.1553    0.0000 </r>
       <r>    0.2437    0.0000 </r>
       <r>    0.4617    0.0000 </r>
      </set>
      <set comment="kpoint 80">
       <r>   -9.4097    1.0000 </r>
       <r>   -3.5726    0.1668 </r>
       <r>   -3.5726    0.1667 </r>
       <r>   -3.5725    0.1660 </r>
       <r>   -0.1763    0.0000 </r>
       <r>    0.1190    0.0000 </r>
       <r>    0.2727    0.0000 </r>
       <r>    0.4024    0.0000 </r>
      </set>
      <set comment="kpoint 81">
       <r>   -9.4097    1.0000 </r>
       <r>   -3.5726    0.1667 </r>
       <r>   -3.5726    0.1666 </r>
       <r>   -3.5726    0.1663 </r>
       <r>   -0.2235    0.0000 </r>
       <r>    0.1751    0.0000 </r>
       <r>    0.4401    0.0000 </r>
       <r>    0.4819    0.0000 </r>
      </set>
      <set comment="kpoint 82">
       <r>   -9.4097    1.0000 </r>
       <r>   -3.5726    0.1667 </r>
       <r>   -3.5726    0.1667 </r>
       <r>   -3.5726    0.1663 </r>
       <r>   -0.2139    0.0000 </r>
       <r>    0.1855    0.0000 </r>
       <r>    0.3555    0.0000 </r>
       <r>    0.4763    0.0000 </r>
      </set>
      <set comment="kpoint 83">
       <r>   -9.4097    1.0000 </r>
       <r>   -3.5726    0.1667 </r>
       <r>   -3.5726    0.1667 </r>
       <r>   -3.5726    0.1663 </r>
       <r>   -0.1963    0.0000 </r>
       <r>    0.1996    0.0000 </r>
       <r>    0.2742    0.0000 </r>
       <r>    0.4956    0.0000 </r>
      </set>
      <set comment="kpoint 84">
       <r>   -9.4097    1.0000 </r>
       <r>   -3.5726    0.1667 </r>
       <r>   -3.5726    0.1667 </r>
       <r>   -3.5726    0.1663 </r>
       <r>   -0.1750    0.0000 </r>
       <r>    0.1737    0.0000 </r>
       <r>    0.2620    0.0000 </r>
       <r>    0.4802    0.0000 </r>
      </set>
      <set comment="kpoint 85">
       <r>   -9.4097    1.0000 </r>
       <r>   -3.5726    0.1667 </r>
       <r>   -3.5726    0.1667 </r>
       <r>   -3.5726    0.1663 </r>
       <r>   -0.1588    0.0000 </r>
       <r>    0.1376    0.0000 </r>
       <r>    0.2907    0.0000 </r>
       <r>    0.4213    0.0000 </r>
      </set>
      <set comment="kpoint 86">
       <r>   -9.4097    1.0000 </r>
       <r>   -3.5726    0.1667 </r>
       <r>   -3.5726    0.1667 </r>
       <r>   -3.5726    0.1666 </r>
       <r>   -0.1977    0.0000 </r>
       <r>    0.2014    0.0000 </r>
       <r>    0.3599    0.0000 </r>
       <r>    0.4929    0.0000 </r>
      </set>
      <set comment="kpoint 87">
       <r>   -9.4097    1.0000 </r>
       <r>   -3.5726    0.1667 </r>
       <r>   -3.5726    0.1667 </r>
       <r>   -3.5726    0.1666 </r>
       <r>   -0.1882    0.0000 </r>
       <r>    0.2118    0.0000 </r>
       <r>    0.3599    0.0000 </r>
       <r>    0.4017    0.0000 </r>
      </set>
      <set comment="kpoint 88">
       <r>   -9.4097    1.0000 </r>
       <r>   -3.5726    0.1667 </r>
       <r>   -3.5726    0.1667 </r>
       <r>   -3.5726    0.1667 </r>
       <r>   -0.1707    0.0000 </r>
       <r>    0.2255    0.0000 </r>
       <r>    0.3007    0.0000 </r>
       <r>    0.3991    0.0000 </r>
      </set>
      <set comment="kpoint 89">
       <r>   -9.4097    1.0000 </r>
       <r>   -3.5726    0.1667 </r>
       <r>   -3.5726    0.1667 </r>
       <r>   -3.5726    0.1667 </r>
       <r>   -0.1496    0.0000 </r>
       <r>    0.2007    0.0000 </r>
       <r>    0.2889    0.0000 </r>
       <r>    0.4243    0.0000 </r>
      </set>
      <set comment="kpoint 90">
       <r>   -9.4097    1.0000 </r>
       <r>   -3.5726    0.1667 </r>
       <r>   -3.5726    0.1667 </r>
       <r>   -3.5726    0.1667 </r>
       <r>   -0.1338    0.0000 </r>
       <r>    0.1654    0.0000 </r>
       <r>    0.3169    0.0000 </r>
       <r>    0.4477    0.0000 </r>
      </set>
      <set comment="kpoint 91">
       <r>   -9.4097    1.0000 </r>
       <r>   -3.5727    0.1670 </r>
       <r>   -3.5726    0.1666 </r>
       <r>   -3.5726    0.1666 </r>
       <r>   -0.1659    0.0000 </r>
       <r>    0.2267    0.0000 </r>
       <r>    0.2852    0.0000 </r>
       <r>    0.5254    0.0000 </r>
      </set>
      <set comment="kpoint 92">
       <r>   -9.4097    1.0000 </r>
       <r>   -3.5727    0.1670 </r>
       <r>   -3.5726    0.1666 </r>
       <r>   -3.5726    0.1666 </r>
       <r>   -0.1565    0.0000 </r>
       <r>    0.2367    0.0000 </r>
       <r>    0.2963    0.0000 </r>
       <r>    0.4241    0.0000 </r>
      </set>
      <set comment="kpoint 93">
       <r>   -9.4097    1.0000 </r>
       <r>   -3.5727    0.1670 </r>
       <r>   -3.5726    0.1666 </r>
       <r>   -3.5726    0.1666 </r>
       <r>   -0.1393    0.0000 </r>
       <r>    0.2506    0.0000 </r>
       <r>    0.3174    0.0000 </r>
       <r>    0.3417    0.0000 </r>
      </set>
      <set comment="kpoint 94">
       <r>   -9.4097    1.0000 </r>
       <r>   -3.5727    0.1670 </r>
       <r>   -3.5726    0.1667 </r>
       <r>   -3.5726    0.1666 </r>
       <r>   -0.1187    0.0000 </r>
       <r>    0.2340    0.0000 </r>
       <r>    0.3177    0.0000 </r>
       <r>    0.3470    0.0000 </r>
      </set>
      <set comment="kpoint 95">
       <r>   -9.4097    1.0000 </r>
       <r>   -3.5727    0.1670 </r>
       <r>   -3.5726    0.1667 </r>
       <r>   -3.5726    0.1666 </r>
       <r>   -0.1033    0.0000 </r>
       <r>    0.2018    0.0000 </r>
       <r>    0.3385    0.0000 </r>
       <r>    0.3744    0.0000 </r>
      </set>
      <set comment="kpoint 96">
       <r>   -9.4097    1.0000 </r>
       <r>   -3.5727    0.1673 </r>
       <r>   -3.5726    0.1666 </r>
       <r>   -3.5726    0.1666 </r>
       <r>   -0.1325    0.0000 </r>
       <r>    0.1908    0.0000 </r>
       <r>    0.2946    0.0000 </r>
       <r>    0.5113    0.0000 </r>
      </set>
      <set comment="kpoint 97">
       <r>   -9.4097    1.0000 </r>
       <r>   -3.5727    0.1673 </r>
       <r>   -3.5726    0.1666 </r>
       <r>   -3.5726    0.1666 </r>
       <r>   -0.1233    0.0000 </r>
       <r>    0.2018    0.0000 </r>
       <r>    0.3056    0.0000 </r>
       <r>    0.4633    0.0000 </r>
      </set>
      <set comment="kpoint 98">
       <r>   -9.4097    1.0000 </r>
       <r>   -3.5727    0.1673 </r>
       <r>   -3.5726    0.1666 </r>
       <r>   -3.5726    0.1666 </r>
       <r>   -0.1066    0.0000 </r>
       <r>    0.2224    0.0000 </r>
       <r>    0.3225    0.0000 </r>
       <r>    0.3792    0.0000 </r>
      </set>
      <set comment="kpoint 99">
       <r>   -9.4097    1.0000 </r>
       <r>   -3.5727    0.1673 </r>
       <r>   -3.5726    0.1667 </r>
       <r>   -3.5726    0.1666 </r>
       <r>   -0.0867    0.0000 </r>
       <r>    0.2466    0.0000 </r>
       <r>    0.2970    0.0000 </r>
       <r>    0.3707    0.0000 </r>
      </set>
      <set comment="kpoint 100">
       <r>   -9.4097    1.0000 </r>
       <r>   -3.5727    0.1673 </r>
       <r>   -3.5726    0.1667 </r>
       <r>   -3.5726    0.1666 </r>
       <r>   -0.0721    0.0000 </r>
       <r>    0.2446    0.0000 </r>
       <r>    0.2869    0.0000 </r>
       <r>    0.3997    0.0000 </r>
      </set>
      <set comment="kpoint 101">
       <r>   -9.4097    1.0000 </r>
       <r>   -3.5727    0.1675 </r>
       <r>   -3.5726    0.1666 </r>
       <r>   -3.5726    0.1666 </r>
       <r>   -0.1080    0.0000 </r>
       <r>    0.1506    0.0000 </r>
       <r>    0.3355    0.0000 </r>
       <r>    0.4496    0.0000 </r>
      </set>
      <set comment="kpoint 102">
       <r>   -9.4097    1.0000 </r>
       <r>   -3.5727    0.1675 </r>
       <r>   -3.5726    0.1666 </r>
       <r>   -3.5726    0.1666 </r>
       <r>   -0.0991    0.0000 </r>
       <r>    0.1621    0.0000 </r>
       <r>    0.3460    0.0000 </r>
       <r>    0.4609    0.0000 </r>
      </set>
      <set comment="kpoint 103">
       <r>   -9.4097    1.0000 </r>
       <r>   -3.5727    0.1675 </r>
       <r>   -3.5726    0.1666 </r>
       <r>   -3.5726    0.1666 </r>
       <r>   -0.0829    0.0000 </r>
       <r>    0.1845    0.0000 </r>
       <r>    0.3607    0.0000 </r>
       <r>    0.4167    0.0000 </r>
      </set>
      <set comment="kpoint 104">
       <r>   -9.4097    1.0000 </r>
       <r>   -3.5727    0.1675 </r>
       <r>   -3.5726    0.1666 </r>
       <r>   -3.5726    0.1666 </r>
       <r>   -0.0639    0.0000 </r>
       <r>    0.2150    0.0000 </r>
       <r>    0.3282    0.0000 </r>
       <r>    0.4106    0.0000 </r>
      </set>
      <set comment="kpoint 105">
       <r>   -9.4097    1.0000 </r>
       <r>   -3.5727    0.1674 </r>
       <r>   -3.5726    0.1667 </r>
       <r>   -3.5726    0.1666 </r>
       <r>   -0.0501    0.0000 </r>
       <r>    0.2443    0.0000 </r>
       <r>    0.2906    0.0000 </r>
       <r>    0.4054    0.0000 </r>
      </set>
      <set comment="kpoint 106">
       <r>   -9.4097    1.0000 </r>
       <r>   -3.5726    0.1667 </r>
       <r>   -3.5726    0.1667 </r>
       <r>   -3.5725    0.1659 </r>
       <r>   -0.2399    0.0000 </r>
       <r>    0.0943    0.0000 </r>
       <r>    0.4543    0.0000 </r>
       <r>    0.5759    0.0000 </r>
      </set>
      <set comment="kpoint 107">
       <r>   -9.4097    1.0000 </r>
       <r>   -3.5726    0.1667 </r>
       <r>   -3.5726    0.1667 </r>
       <r>   -3.5725    0.1659 </r>
       <r>   -0.2305    0.0000 </r>
       <r>    0.1063    0.0000 </r>
       <r>    0.3469    0.0000 </r>
       <r>    0.5727    0.0000 </r>
      </set>
      <set comment="kpoint 108">
       <r>   -9.4097    1.0000 </r>
       <r>   -3.5726    0.1667 </r>
       <r>   -3.5726    0.1667 </r>
       <r>   -3.5725    0.1659 </r>
       <r>   -0.2132    0.0000 </r>
       <r>    0.1293    0.0000 </r>
       <r>    0.2549    0.0000 </r>
       <r>    0.4765    0.0000 </r>
      </set>
      <set comment="kpoint 109">
       <r>   -9.4097    1.0000 </r>
       <r>   -3.5726    0.1668 </r>
       <r>   -3.5726    0.1667 </r>
       <r>   -3.5725    0.1659 </r>
       <r>   -0.1925    0.0000 </r>
       <r>    0.1517    0.0000 </r>
       <r>    0.1953    0.0000 </r>
       <r>    0.3907    0.0000 </r>
      </set>
      <set comment="kpoint 110">
       <r>   -9.4097    1.0000 </r>
       <r>   -3.5726    0.1668 </r>
       <r>   -3.5726    0.1667 </r>
       <r>   -3.5725    0.1659 </r>
       <r>   -0.1770    0.0000 </r>
       <r>    0.1312    0.0000 </r>
       <r>    0.2119    0.0000 </r>
       <r>    0.3276    0.0000 </r>
      </set>
      <set comment="kpoint 111">
       <r>   -9.4097    1.0000 </r>
       <r>   -3.5726    0.1667 </r>
       <r>   -3.5726    0.1667 </r>
       <r>   -3.5725    0.1660 </r>
       <r>   -0.2309    0.0000 </r>
       <r>    0.1037    0.0000 </r>
       <r>    0.4622    0.0000 </r>
       <r>    0.5687    0.0000 </r>
      </set>
      <set comment="kpoint 112">
       <r>   -9.4097    1.0000 </r>
       <r>   -3.5726    0.1667 </r>
       <r>   -3.5726    0.1667 </r>
       <r>   -3.5725    0.1660 </r>
       <r>   -0.2214    0.0000 </r>
       <r>    0.1157    0.0000 </r>
       <r>    0.3556    0.0000 </r>
       <r>    0.5805    0.0000 </r>
      </set>
      <set comment="kpoint 113">
       <r>   -9.4097    1.0000 </r>
       <r>   -3.5726    0.1667 </r>
       <r>   -3.5726    0.1667 </r>
       <r>   -3.5725    0.1660 </r>
       <r>   -0.2042    0.0000 </r>
       <r>    0.1387    0.0000 </r>
       <r>    0.2639    0.0000 </r>
       <r>    0.4858    0.0000 </r>
      </set>
      <set comment="kpoint 114">
       <r>   -9.4097    1.0000 </r>
       <r>   -3.5726    0.1667 </r>
       <r>   -3.5726    0.1667 </r>
       <r>   -3.5725    0.1660 </r>
       <r>   -0.1835    0.0000 </r>
       <r>    0.1611    0.0000 </r>
       <r>    0.2045    0.0000 </r>
       <r>    0.4002    0.0000 </r>
      </set>
      <set comment="kpoint 115">
       <r>   -9.4097    1.0000 </r>
       <r>   -3.5726    0.1668 </r>
       <r>   -3.5726    0.1667 </r>
       <r>   -3.5725    0.1660 </r>
       <r>   -0.1681    0.0000 </r>
       <r>    0.1405    0.0000 </r>
       <r>    0.2212    0.0000 </r>
       <r>    0.3372    0.0000 </r>
      </set>
      <set comment="kpoint 116">
       <r>   -9.4097    1.0000 </r>
       <r>   -3.5726    0.1667 </r>
       <r>   -3.5726    0.1666 </r>
       <r>   -3.5726    0.1663 </r>
       <r>   -0.2131    0.0000 </r>
       <r>    0.1225    0.0000 </r>
       <r>    0.4615    0.0000 </r>
       <r>    0.4962    0.0000 </r>
      </set>
      <set comment="kpoint 117">
       <r>   -9.4097    1.0000 </r>
       <r>   -3.5726    0.1667 </r>
       <r>   -3.5726    0.1667 </r>
       <r>   -3.5726    0.1663 </r>
       <r>   -0.2037    0.0000 </r>
       <r>    0.1345    0.0000 </r>
       <r>    0.3719    0.0000 </r>
       <r>    0.4923    0.0000 </r>
      </set>
      <set comment="kpoint 118">
       <r>   -9.4097    1.0000 </r>
       <r>   -3.5726    0.1667 </r>
       <r>   -3.5726    0.1667 </r>
       <r>   -3.5726    0.1663 </r>
       <r>   -0.1866    0.0000 </r>
       <r>    0.1574    0.0000 </r>
       <r>    0.2817    0.0000 </r>
       <r>    0.5042    0.0000 </r>
      </set>
      <set comment="kpoint 119">
       <r>   -9.4097    1.0000 </r>
       <r>   -3.5726    0.1667 </r>
       <r>   -3.5726    0.1667 </r>
       <r>   -3.5726    0.1663 </r>
       <r>   -0.1660    0.0000 </r>
       <r>    0.1796    0.0000 </r>
       <r>    0.2229    0.0000 </r>
       <r>    0.4190    0.0000 </r>
      </set>
      <set comment="kpoint 120">
       <r>   -9.4097    1.0000 </r>
       <r>   -3.5726    0.1667 </r>
       <r>   -3.5726    0.1667 </r>
       <r>   -3.5726    0.1663 </r>
       <r>   -0.1506    0.0000 </r>
       <r>    0.1591    0.0000 </r>
       <r>    0.2396    0.0000 </r>
       <r>    0.3564    0.0000 </r>
      </set>
      <set comment="kpoint 121">
       <r>   -9.4097    1.0000 </r>
       <r>   -3.5726    0.1667 </r>
       <r>   -3.5726    0.1667 </r>
       <r>   -3.5726    0.1666 </r>
       <r>   -0.1876    0.0000 </r>
       <r>    0.1503    0.0000 </r>
       <r>    0.3742    0.0000 </r>
       <r>    0.5107    0.0000 </r>
      </set>
      <set comment="kpoint 122">
       <r>   -9.4097    1.0000 </r>
       <r>   -3.5726    0.1667 </r>
       <r>   -3.5726    0.1667 </r>
       <r>   -3.5726    0.1666 </r>
       <r>   -0.1782    0.0000 </r>
       <r>    0.1623    0.0000 </r>
       <r>    0.3736    0.0000 </r>
       <r>    0.4174    0.0000 </r>
      </set>
      <set comment="kpoint 123">
       <r>   -9.4097    1.0000 </r>
       <r>   -3.5726    0.1667 </r>
       <r>   -3.5726    0.1667 </r>
       <r>   -3.5726    0.1667 </r>
       <r>   -0.1612    0.0000 </r>
       <r>    0.1851    0.0000 </r>
       <r>    0.3070    0.0000 </r>
       <r>    0.4131    0.0000 </r>
      </set>
      <set comment="kpoint 124">
       <r>   -9.4097    1.0000 </r>
       <r>   -3.5726    0.1667 </r>
       <r>   -3.5726    0.1667 </r>
       <r>   -3.5726    0.1667 </r>
       <r>   -0.1409    0.0000 </r>
       <r>    0.2070    0.0000 </r>
       <r>    0.2502    0.0000 </r>
       <r>    0.4386    0.0000 </r>
      </set>
[...]
      <set comment="kpoint 164">
       <r>   -9.4097    1.0000 </r>
       <r>   -3.5727    0.1670 </r>
       <r>   -3.5726    0.1667 </r>
       <r>   -3.5726    0.1666 </r>
       <r>   -0.1042    0.0000 </r>
       <r>    0.2320    0.0000 </r>
       <r>    0.2839    0.0000 </r>
       <r>    0.3625    0.0000 </r>
      </set>
      <set comment="kpoint 165">
       <r>   -9.4097    1.0000 </r>
       <r>   -3.5727    0.1670 </r>
       <r>   -3.5726    0.1667 </r>
       <r>   -3.5726    0.1666 </r>
       <r>   -0.0900    0.0000 </r>
       <r>    0.2436    0.0000 </r>
       <r>    0.2746    0.0000 </r>
       <r>    0.3809    0.0000 </r>
      </set>
      <set comment="kpoint 166">
       <r>   -9.4097    1.0000 </r>
       <r>   -3.5727    0.1673 </r>
       <r>   -3.5726    0.1666 </r>
       <r>   -3.5726    0.1666 </r>
       <r>   -0.1168    0.0000 </r>
       <r>    0.2038    0.0000 </r>
       <r>    0.2308    0.0000 </r>
       <r>    0.4193    0.0000 </r>
      </set>
      <set comment="kpoint 167">
       <r>   -9.4097    1.0000 </r>
       <r>   -3.5727    0.1673 </r>
       <r>   -3.5726    0.1666 </r>
       <r>   -3.5726    0.1666 </r>
       <r>   -0.1079    0.0000 </r>
       <r>    0.2161    0.0000 </r>
       <r>    0.2416    0.0000 </r>
       <r>    0.4317    0.0000 </r>
      </set>
      <set comment="kpoint 168">
       <r>   -9.4097    1.0000 </r>
       <r>   -3.5727    0.1673 </r>
       <r>   -3.5726    0.1666 </r>
       <r>   -3.5726    0.1666 </r>
       <r>   -0.0920    0.0000 </r>
       <r>    0.2402    0.0000 </r>
       <r>    0.2620    0.0000 </r>
       <r>    0.4010    0.0000 </r>
      </set>
      <set comment="kpoint 169">
       <r>   -9.4097    1.0000 </r>
       <r>   -3.5727    0.1673 </r>
       <r>   -3.5726    0.1667 </r>
       <r>   -3.5726    0.1666 </r>
       <r>   -0.0732    0.0000 </r>
       <r>    0.2730    0.0000 </r>
       <r>    0.2893    0.0000 </r>
       <r>    0.3331    0.0000 </r>
      </set>
      <set comment="kpoint 170">
       <r>   -9.4097    1.0000 </r>
       <r>   -3.5727    0.1673 </r>
       <r>   -3.5726    0.1667 </r>
       <r>   -3.5726    0.1666 </r>
       <r>   -0.0596    0.0000 </r>
       <r>    0.2844    0.0000 </r>
       <r>    0.3119    0.0000 </r>
       <r>    0.3208    0.0000 </r>
      </set>
      <set comment="kpoint 171">
       <r>   -9.4097    1.0000 </r>
       <r>   -3.5727    0.1675 </r>
       <r>   -3.5726    0.1666 </r>
       <r>   -3.5726    0.1666 </r>
       <r>   -0.0937    0.0000 </r>
       <r>    0.1862    0.0000 </r>
       <r>    0.2551    0.0000 </r>
       <r>    0.3518    0.0000 </r>
      </set>
      <set comment="kpoint 172">
       <r>   -9.4097    1.0000 </r>
       <r>   -3.5727    0.1675 </r>
       <r>   -3.5726    0.1666 </r>
       <r>   -3.5726    0.1666 </r>
       <r>   -0.0850    0.0000 </r>
       <r>    0.1973    0.0000 </r>
       <r>    0.2673    0.0000 </r>
       <r>    0.3647    0.0000 </r>
      </set>
      <set comment="kpoint 173">
       <r>   -9.4097    1.0000 </r>
       <r>   -3.5727    0.1675 </r>
       <r>   -3.5726    0.1666 </r>
       <r>   -3.5726    0.1666 </r>
       <r>   -0.0695    0.0000 </r>
       <r>    0.2184    0.0000 </r>
       <r>    0.2912    0.0000 </r>
       <r>    0.3903    0.0000 </r>
      </set>
      <set comment="kpoint 174">
       <r>   -9.4097    1.0000 </r>
       <r>   -3.5727    0.1674 </r>
       <r>   -3.5726    0.1666 </r>
       <r>   -3.5726    0.1666 </r>
       <r>   -0.0515    0.0000 </r>
       <r>    0.2465    0.0000 </r>
       <r>    0.3248    0.0000 </r>
       <r>    0.3666    0.0000 </r>
      </set>
      <set comment="kpoint 175">
       <r>   -9.4097    1.0000 </r>
       <r>   -3.5727    0.1675 </r>
       <r>   -3.5726    0.1667 </r>
       <r>   -3.5726    0.1666 </r>
       <r>   -0.0385    0.0000 </r>
       <r>    0.2718    0.0000 </r>
       <r>    0.3259    0.0000 </r>
       <r>    0.3616    0.0000 </r>
      </set>
     </set>
    </set>
   </array>
  </eigenvalues>
  <separator name="orbital magnetization" >
   <v name="MAGDIPOLOUT">      0.00000000      0.00000000      0.00000000</v>
  </separator>
  <dos>
   <i name="efermi">     -3.60681128 </i>
   <total>
    <array>
     <dimension dim="1">gridpoints</dimension>
     <dimension dim="2">spin</dimension>
     <field>energy</field>
     <field>total</field>
     <field>integrated</field>
     <set>
      <set comment="spin 1">
       <r>    -9.9104     0.0000     0.0000 </r>
       <r>    -9.8737     0.0000     0.0000 </r>
       <r>    -9.8369     0.0000     0.0000 </r>
       <r>    -9.8002     0.0000     0.0000 </r>
       <r>    -9.7635     0.0000     0.0000 </r>
       <r>    -9.7268     0.0000     0.0000 </r>
       <r>    -9.6901     0.0000     0.0000 </r>
       <r>    -9.6534     0.0000     0.0000 </r>
       <r>    -9.6166     0.0000     0.0000 </r>
       <r>    -9.5799     0.0000     0.0000 </r>
       <r>    -9.5432     0.0043     0.0002 </r>
       <r>    -9.5065     0.1640     0.0062 </r>
       <r>    -9.4698     2.2615     0.0892 </r>
       <r>    -9.4330    11.4224     0.5086 </r>
       <r>    -9.3963    21.3961     1.2943 </r>
       <r>    -9.3596    14.9514     1.8433 </r>
       <r>    -9.3229     3.8843     1.9859 </r>
       <r>    -9.2862     0.3710     1.9995 </r>
       <r>    -9.2494     0.0128     2.0000 </r>
       <r>    -9.2127     0.0002     2.0000 </r>
       <r>    -9.1760     0.0000     2.0000 </r>
       <r>    -9.1393     0.0000     2.0000 </r>
       <r>    -9.1026     0.0000     2.0000 </r>
       <r>    -9.0659     0.0000     2.0000 </r>
       <r>    -9.0291     0.0000     2.0000 </r>
       <r>    -8.9924     0.0000     2.0000 </r>
       <r>    -8.9557     0.0000     2.0000 </r>
       <r>    -8.9190     0.0000     2.0000 </r>
       <r>    -8.8823     0.0000     2.0000 </r>
       <r>    -8.8455     0.0000     2.0000 </r>
       <r>    -8.8088     0.0000     2.0000 </r>
       <r>    -8.7721     0.0000     2.0000 </r>
       <r>    -8.7354     0.0000     2.0000 </r>
       <r>    -8.6987     0.0000     2.0000 </r>
       <r>    -8.6619     0.0000     2.0000 </r>
       <r>    -8.6252     0.0000     2.0000 </r>
       <r>    -8.5885     0.0000     2.0000 </r>
       <r>    -8.5518     0.0000     2.0000 </r>
       <r>    -8.5151     0.0000     2.0000 </r>
       <r>    -8.4784     0.0000     2.0000 </r>
       <r>    -8.4416     0.0000     2.0000 </r>
       <r>    -8.4049     0.0000     2.0000 </r>
       <r>    -8.3682     0.0000     2.0000 </r>
       <r>    -8.3315     0.0000     2.0000 </r>
       <r>    -8.2948     0.0000     2.0000 </r>
       <r>    -8.2580     0.0000     2.0000 </r>
       <r>    -8.2213     0.0000     2.0000 </r>
       <r>    -8.1846     0.0000     2.0000 </r>
       <r>    -8.1479     0.0000     2.0000 </r>
       <r>    -8.1112     0.0000     2.0000 </r>
       <r>    -8.0744     0.0000     2.0000 </r>
       <r>    -8.0377     0.0000     2.0000 </r>
       <r>    -8.0010     0.0000     2.0000 </r>
       <r>    -7.9643     0.0000     2.0000 </r>
       <r>    -7.9276     0.0000     2.0000 </r>
       <r>    -7.8908     0.0000     2.0000 </r>
       <r>    -7.8541     0.0000     2.0000 </r>
       <r>    -7.8174     0.0000     2.0000 </r>
       <r>    -7.7807     0.0000     2.0000 </r>
       <r>    -7.7440     0.0000     2.0000 </r>
       <r>    -7.7073     0.0000     2.0000 </r>
       <r>    -7.6705     0.0000     2.0000 </r>
       <r>    -7.6338     0.0000     2.0000 </r>
       <r>    -7.5971     0.0000     2.0000 </r>
       <r>    -7.5604     0.0000     2.0000 </r>
       <r>    -7.5237     0.0000     2.0000 </r>
       <r>    -7.4869     0.0000     2.0000 </r>
       <r>    -7.4502     0.0000     2.0000 </r>
       <r>    -7.4135     0.0000     2.0000 </r>
       <r>    -7.3768     0.0000     2.0000 </r>
       <r>    -7.3401     0.0000     2.0000 </r>
       <r>    -7.3033     0.0000     2.0000 </r>
       <r>    -7.2666     0.0000     2.0000 </r>
       <r>    -7.2299     0.0000     2.0000 </r>
       <r>    -7.1932     0.0000     2.0000 </r>
       <r>    -7.1565     0.0000     2.0000 </r>
       <r>    -7.1198     0.0000     2.0000 </r>
       <r>    -7.0830     0.0000     2.0000 </r>
       <r>    -7.0463     0.0000     2.0000 </r>
       <r>    -7.0096     0.0000     2.0000 </r>
       <r>    -6.9729     0.0000     2.0000 </r>
       <r>    -6.9362     0.0000     2.0000 </r>
       <r>    -6.8994     0.0000     2.0000 </r>
       <r>    -6.8627     0.0000     2.0000 </r>
       <r>    -6.8260     0.0000     2.0000 </r>
       <r>    -6.7893     0.0000     2.0000 </r>
       <r>    -6.7526     0.0000     2.0000 </r>
       <r>    -6.7158     0.0000     2.0000 </r>
       <r>    -6.6791     0.0000     2.0000 </r>
       <r>    -6.6424     0.0000     2.0000 </r>
       <r>    -6.6057     0.0000     2.0000 </r>
       <r>    -6.5690     0.0000     2.0000 </r>
       <r>    -6.5323     0.0000     2.0000 </r>
       <r>    -6.4955     0.0000     2.0000 </r>
       <r>    -6.4588     0.0000     2.0000 </r>
       <r>    -6.4221     0.0000     2.0000 </r>
       <r>    -6.3854     0.0000     2.0000 </r>
       <r>    -6.3487     0.0000     2.0000 </r>
       <r>    -6.3119     0.0000     2.0000 </r>
       <r>    -6.2752     0.0000     2.0000 </r>
       <r>    -6.2385     0.0000     2.0000 </r>
       <r>    -6.2018     0.0000     2.0000 </r>
       <r>    -6.1651     0.0000     2.0000 </r>
       <r>    -6.1283     0.0000     2.0000 </r>
       <r>    -6.0916     0.0000     2.0000 </r>
       <r>    -6.0549     0.0000     2.0000 </r>
       <r>    -6.0182     0.0000     2.0000 </r>
       <r>    -5.9815     0.0000     2.0000 </r>
       <r>    -5.9447     0.0000     2.0000 </r>
       <r>    -5.9080     0.0000     2.0000 </r>
       <r>    -5.8713     0.0000     2.0000 </r>
       <r>    -5.8346     0.0000     2.0000 </r>
       <r>    -5.7979     0.0000     2.0000 </r>
       <r>    -5.7612     0.0000     2.0000 </r>
       <r>    -5.7244     0.0000     2.0000 </r>
       <r>    -5.6877     0.0000     2.0000 </r>
       <r>    -5.6510     0.0000     2.0000 </r>
       <r>    -5.6143     0.0000     2.0000 </r>
       <r>    -5.5776     0.0000     2.0000 </r>
       <r>    -5.5408     0.0000     2.0000 </r>
       <r>    -5.5041     0.0000     2.0000 </r>
       <r>    -5.4674     0.0000     2.0000 </r>
       <r>    -5.4307     0.0000     2.0000 </r>
       <r>    -5.3940     0.0000     2.0000 </r>
       <r>    -5.3572     0.0000     2.0000 </r>
       <r>    -5.3205     0.0000     2.0000 </r>
       <r>    -5.2838     0.0000     2.0000 </r>
       <r>    -5.2471     0.0000     2.0000 </r>
       <r>    -5.2104     0.0000     2.0000 </r>
       <r>    -5.1737     0.0000     2.0000 </r>
       <r>    -5.1369     0.0000     2.0000 </r>
       <r>    -5.1002     0.0000     2.0000 </r>
       <r>    -5.0635     0.0000     2.0000 </r>
       <r>    -5.0268     0.0000     2.0000 </r>
       <r>    -4.9901     0.0000     2.0000 </r>
       <r>    -4.9533     0.0000     2.0000 </r>
       <r>    -4.9166     0.0000     2.0000 </r>
       <r>    -4.8799     0.0000     2.0000 </r>
       <r>    -4.8432     0.0000     2.0000 </r>
       <r>    -4.8065     0.0000     2.0000 </r>
       <r>    -4.7697     0.0000     2.0000 </r>
       <r>    -4.7330     0.0000     2.0000 </r>
       <r>    -4.6963     0.0000     2.0000 </r>
       <r>    -4.6596     0.0000     2.0000 </r>
       <r>    -4.6229     0.0000     2.0000 </r>
       <r>    -4.5862     0.0000     2.0000 </r>
       <r>    -4.5494     0.0000     2.0000 </r>
       <r>    -4.5127     0.0000     2.0000 </r>
       <r>    -4.4760     0.0000     2.0000 </r>
       <r>    -4.4393     0.0000     2.0000 </r>
       <r>    -4.4026     0.0000     2.0000 </r>
       <r>    -4.3658     0.0000     2.0000 </r>
       <r>    -4.3291     0.0000     2.0000 </r>
       <r>    -4.2924     0.0000     2.0000 </r>
       <r>    -4.2557     0.0000     2.0000 </r>
       <r>    -4.2190     0.0000     2.0000 </r>
       <r>    -4.1822     0.0000     2.0000 </r>
       <r>    -4.1455     0.0000     2.0000 </r>
       <r>    -4.1088     0.0000     2.0000 </r>
       <r>    -4.0721     0.0000     2.0000 </r>
       <r>    -4.0354     0.0000     2.0000 </r>
       <r>    -3.9986     0.0000     2.0000 </r>
       <r>    -3.9619     0.0000     2.0000 </r>
       <r>    -3.9252     0.0000     2.0000 </r>
       <r>    -3.8885     0.0000     2.0000 </r>
       <r>    -3.8518     0.0000     2.0000 </r>
       <r>    -3.8151     0.0000     2.0000 </r>
       <r>    -3.7783     0.0000     2.0000 </r>
       <r>    -3.7416     0.0001     2.0000 </r>
       <r>    -3.7049     0.0148     2.0005 </r>
       <r>    -3.6682     0.5463     2.0206 </r>
       <r>    -3.6315     7.2820     2.2880 </r>
       <r>    -3.5947    35.5658     3.5939 </r>
       <r>    -3.5580    64.4431     5.9602 </r>
       <r>    -3.5213    43.5622     7.5598 </r>
       <r>    -3.4846    10.9448     7.9616 </r>
       <r>    -3.4479     1.0104     7.9987 </r>
       <r>    -3.4111     0.0338     8.0000 </r>
       <r>    -3.3744     0.0004     8.0000 </r>
       <r>    -3.3377     0.0000     8.0000 </r>
       <r>    -3.3010     0.0000     8.0000 </r>
       <r>    -3.2643     0.0000     8.0000 </r>
       <r>    -3.2276     0.0000     8.0000 </r>
       <r>    -3.1908     0.0000     8.0000 </r>
       <r>    -3.1541     0.0000     8.0000 </r>
       <r>    -3.1174     0.0000     8.0000 </r>
       <r>    -3.0807     0.0000     8.0000 </r>
       <r>    -3.0440     0.0000     8.0000 </r>
       <r>    -3.0072     0.0000     8.0000 </r>
       <r>    -2.9705     0.0000     8.0000 </r>
       <r>    -2.9338     0.0000     8.0000 </r>
       <r>    -2.8971     0.0000     8.0000 </r>
       <r>    -2.8604     0.0000     8.0000 </r>
       <r>    -2.8236     0.0000     8.0000 </r>
       <r>    -2.7869     0.0000     8.0000 </r>
       <r>    -2.7502     0.0000     8.0000 </r>
       <r>    -2.7135     0.0000     8.0000 </r>
       <r>    -2.6768     0.0000     8.0000 </r>
       <r>    -2.6400     0.0000     8.0000 </r>
       <r>    -2.6033     0.0000     8.0000 </r>
       <r>    -2.5666     0.0000     8.0000 </r>
       <r>    -2.5299     0.0000     8.0000 </r>
       <r>    -2.4932     0.0000     8.0000 </r>
       <r>    -2.4565     0.0000     8.0000 </r>
       <r>    -2.4197     0.0000     8.0000 </r>
       <r>    -2.3830     0.0000     8.0000 </r>
       <r>    -2.3463     0.0000     8.0000 </r>
       <r>    -2.3096     0.0000     8.0000 </r>
       <r>    -2.2729     0.0000     8.0000 </r>
       <r>    -2.2361     0.0000     8.0000 </r>
       <r>    -2.1994     0.0000     8.0000 </r>
       <r>    -2.1627     0.0000     8.0000 </r>
       <r>    -2.1260     0.0000     8.0000 </r>
       <r>    -2.0893     0.0000     8.0000 </r>
       <r>    -2.0525     0.0000     8.0000 </r>
       <r>    -2.0158     0.0000     8.0000 </r>
       <r>    -1.9791     0.0000     8.0000 </r>
       <r>    -1.9424     0.0000     8.0000 </r>
       <r>    -1.9057     0.0000     8.0000 </r>
       <r>    -1.8690     0.0000     8.0000 </r>
       <r>    -1.8322     0.0000     8.0000 </r>
       <r>    -1.7955     0.0000     8.0000 </r>
       <r>    -1.7588     0.0000     8.0000 </r>
       <r>    -1.7221     0.0000     8.0000 </r>
       <r>    -1.6854     0.0000     8.0000 </r>
       <r>    -1.6486     0.0000     8.0000 </r>
       <r>    -1.6119     0.0000     8.0000 </r>
       <r>    -1.5752     0.0000     8.0000 </r>
       <r>    -1.5385     0.0000     8.0000 </r>
       <r>    -1.5018     0.0000     8.0000 </r>
       <r>    -1.4650     0.0000     8.0000 </r>
       <r>    -1.4283     0.0000     8.0000 </r>
       <r>    -1.3916     0.0000     8.0000 </r>
       <r>    -1.3549     0.0000     8.0000 </r>
       <r>    -1.3182     0.0000     8.0000 </r>
       <r>    -1.2815     0.0000     8.0000 </r>
       <r>    -1.2447     0.0000     8.0000 </r>
       <r>    -1.2080     0.0000     8.0000 </r>
       <r>    -1.1713     0.0000     8.0000 </r>
       <r>    -1.1346     0.0000     8.0000 </r>
       <r>    -1.0979     0.0000     8.0000 </r>
       <r>    -1.0611     0.0000     8.0000 </r>
       <r>    -1.0244     0.0000     8.0000 </r>
       <r>    -0.9877     0.0000     8.0000 </r>
       <r>    -0.9510     0.0000     8.0000 </r>
       <r>    -0.9143     0.0000     8.0000 </r>
       <r>    -0.8775     0.0000     8.0000 </r>
       <r>    -0.8408     0.0000     8.0000 </r>
       <r>    -0.8041     0.0000     8.0000 </r>
       <r>    -0.7674     0.0000     8.0000 </r>
       <r>    -0.7307     0.0000     8.0000 </r>
       <r>    -0.6939     0.0000     8.0000 </r>
       <r>    -0.6572     0.0000     8.0000 </r>
       <r>    -0.6205     0.0000     8.0000 </r>
       <r>    -0.5838     0.0000     8.0000 </r>
       <r>    -0.5471     0.0000     8.0000 </r>
       <r>    -0.5104     0.0000     8.0000 </r>
       <r>    -0.4736     0.0000     8.0000 </r>
       <r>    -0.4369     0.0000     8.0000 </r>
       <r>    -0.4002     0.0000     8.0000 </r>
       <r>    -0.3635     0.0025     8.0001 </r>
       <r>    -0.3268     0.0613     8.0023 </r>
       <r>    -0.2900     0.6216     8.0252 </r>
       <r>    -0.2533     2.8997     8.1316 </r>
       <r>    -0.2166     7.0301     8.3898 </r>
       <r>    -0.1799    10.3165     8.7686 </r>
       <r>    -0.1432    10.8312     9.1663 </r>
       <r>    -0.1064     9.6197     9.5195 </r>
       <r>    -0.0697     7.3823     9.7906 </r>
       <r>    -0.0330     4.1030     9.9413 </r>
       <r>     0.0037     1.3990     9.9926 </r>
       <r>     0.0404     0.6174    10.0153 </r>
       <r>     0.0771     1.7961    10.0812 </r>
       <r>     0.1139     4.7813    10.2568 </r>
       <r>     0.1506     8.8539    10.5819 </r>
       <r>     0.1873    12.6068    11.0448 </r>
       <r>     0.2240    14.9725    11.5946 </r>
       <r>     0.2607    15.7569    12.1732 </r>
       <r>     0.2975    15.7774    12.7525 </r>
       <r>     0.3342    15.9234    13.3372 </r>
       <r>     0.3709    15.9594    13.9232 </r>
       <r>     0.4076    15.2488    14.4831 </r>
       <r>     0.4443    13.7729    14.9888 </r>
       <r>     0.4811    11.5848    15.4142 </r>
       <r>     0.5178     8.1075    15.7119 </r>
       <r>     0.5545     4.5565    15.8792 </r>
       <r>     0.5912     2.1787    15.9592 </r>
       <r>     0.6279     0.8601    15.9908 </r>
       <r>     0.6646     0.2203    15.9989 </r>
       <r>     0.7014     0.0283    15.9999 </r>
       <r>     0.7381     0.0016    16.0000 </r>
       <r>     0.7748     0.0000    16.0000 </r>
       <r>     0.8115     0.0000    16.0000 </r>
       <r>     0.8482     0.0000    16.0000 </r>
       <r>     0.8850     0.0000    16.0000 </r>
       <r>     0.9217     0.0000    16.0000 </r>
       <r>     0.9584     0.0000    16.0000 </r>
       <r>     0.9951     0.0000    16.0000 </r>
       <r>     1.0318     0.0000    16.0000 </r>
       <r>     1.0686     0.0000    16.0000 </r>
       <r>     1.1053     0.0000    16.0000 </r>
      </set>
     </set>
    </array>
   </total>
  </dos>
 </calculation>
 <structure name="finalpos" >
  <crystal>
   <varray name="basis" >
    <v>      15.00000000       0.00000000       0.00000000 </v>
    <v>       0.00000000      12.50000000       0.00000000 </v>
    <v>       0.00000000       0.00000000      18.00000000 </v>
   </varray>
   <i name="volume">   3375.00000000 </i>
   <varray name="rec_basis" >
    <v>       0.06666667       0.00000000       0.00000000 </v>
    <v>       0.00000000       0.08000000       0.00000000 </v>
    <v>       0.00000000       0.00000000       0.05555556 </v>
   </varray>
  </crystal>
  <varray name="positions" >
   <v>       0.52123000       0.54500000       0.63796000 </v>
  </varray>
 </structure>
</modeling>
