  14  14   0   0
  0.1021318E+02  0.5700971E-09  0.4044058E-09  0.6201871E-09  0.5000000E-15
  1.000000000000000E-004
  CAR 
 SC                                      
     17.97772605    -14.15749891  301      1.91513937      1.00000000
    -14.157  0.0000E+00  0.0000E+00
    -14.050  0.0000E+00  0.0000E+00
    -13.943  0.0000E+00  0.0000E+00
    -13.836  0.0000E+00  0.0000E+00
    -13.729  0.0000E+00  0.0000E+00
    -13.622  0.0000E+00  0.0000E+00
    -13.515  0.0000E+00  0.0000E+00
    -13.408  0.0000E+00  0.0000E+00
    -13.301  0.0000E+00  0.0000E+00
    -13.193  0.6656E-13  0.7130E-14
    -13.086  0.1470E-08  0.1575E-09
    -12.979  0.3813E-05  0.4086E-06
    -12.872  0.1273E-02  0.1368E-03
    -12.765  0.6493E-01  0.7092E-02
    -12.658  0.6758E+00  0.7948E-01
    -12.551  0.2144E+01  0.3091E+00
    -12.444  0.3417E+01  0.6751E+00
    -12.337  0.4013E+01  0.1105E+01
    -12.229  0.3566E+01  0.1487E+01
    -12.122  0.2909E+01  0.1799E+01
    -12.015  0.2619E+01  0.2079E+01
    -11.908  0.2552E+01  0.2352E+01
    -11.801  0.2683E+01  0.2640E+01
    -11.694  0.3094E+01  0.2971E+01
    -11.587  0.3425E+01  0.3338E+01
    -11.480  0.3107E+01  0.3671E+01
    -11.372  0.2060E+01  0.3892E+01
    -11.265  0.8471E+00  0.3982E+01
    -11.158  0.1559E+00  0.3999E+01
    -11.051  0.7706E-02  0.4000E+01
    -10.944  0.6767E-04  0.4000E+01
    -10.837  0.8293E-07  0.4000E+01
    -10.730  0.1246E-10  0.4000E+01
    -10.623  0.2073E-15  0.4000E+01
    -10.516  0.0000E+00  0.4000E+01
    -10.408  0.0000E+00  0.4000E+01
    -10.301  0.0000E+00  0.4000E+01
    -10.194  0.0000E+00  0.4000E+01
    -10.087  0.0000E+00  0.4000E+01
     -9.980  0.0000E+00  0.4000E+01
     -9.873  0.0000E+00  0.4000E+01
     -9.766  0.0000E+00  0.4000E+01
     -9.659  0.0000E+00  0.4000E+01
     -9.551  0.0000E+00  0.4000E+01
     -9.444  0.0000E+00  0.4000E+01
     -9.337  0.1662E-13  0.4000E+01
     -9.230  0.4907E-09  0.4000E+01
     -9.123  0.1684E-05  0.4000E+01
     -9.016  0.7300E-03  0.4000E+01
     -8.909  0.4677E-01  0.4005E+01
     -8.802  0.5958E+00  0.4069E+01
     -8.695  0.2465E+01  0.4333E+01
     -8.587  0.5147E+01  0.4884E+01
     -8.480  0.6344E+01  0.5564E+01
     -8.373  0.5487E+01  0.6151E+01
     -8.266  0.4789E+01  0.6664E+01
     -8.159  0.4653E+01  0.7163E+01
     -8.052  0.3967E+01  0.7588E+01
     -7.945  0.2425E+01  0.7848E+01
     -7.838  0.1062E+01  0.7961E+01
     -7.730  0.3202E+00  0.7996E+01
     -7.623  0.3988E-01  0.8000E+01
     -7.516  0.1167E-02  0.8000E+01
     -7.409  0.5575E-05  0.8000E+01
     -7.302  0.1650E-07  0.8000E+01
     -7.195  0.1159E-04  0.8000E+01
     -7.088  0.1367E-02  0.8000E+01
     -6.981  0.2743E-01  0.8003E+01
     -6.874  0.1396E+00  0.8018E+01
     -6.766  0.3079E+00  0.8051E+01
     -6.659  0.5017E+00  0.8105E+01
     -6.552  0.7103E+00  0.8181E+01
     -6.445  0.9856E+00  0.8286E+01
     -6.338  0.1486E+01  0.8446E+01
     -6.231  0.2242E+01  0.8686E+01
     -6.124  0.3165E+01  0.9025E+01
     -6.017  0.3853E+01  0.9438E+01
     -5.909  0.4006E+01  0.9867E+01
     -5.802  0.4092E+01  0.1030E+02
     -5.695  0.4110E+01  0.1075E+02
     -5.588  0.4055E+01  0.1118E+02
     -5.481  0.4237E+01  0.1163E+02
     -5.374  0.4580E+01  0.1212E+02
     -5.267  0.4627E+01  0.1262E+02
     -5.160  0.4280E+01  0.1308E+02
     -5.053  0.3754E+01  0.1348E+02
     -4.945  0.3104E+01  0.1381E+02
     -4.838  0.2573E+01  0.1409E+02
     -4.731  0.2754E+01  0.1438E+02
     -4.624  0.3274E+01  0.1473E+02
     -4.517  0.3526E+01  0.1511E+02
     -4.410  0.3293E+01  0.1546E+02
     -4.303  0.3046E+01  0.1579E+02
     -4.196  0.2910E+01  0.1610E+02
     -4.088  0.2894E+01  0.1641E+02
     -3.981  0.2978E+01  0.1673E+02
     -3.874  0.2976E+01  0.1705E+02
     -3.767  0.2983E+01  0.1737E+02
     -3.660  0.2981E+01  0.1769E+02
     -3.553  0.2755E+01  0.1798E+02
     -3.446  0.2716E+01  0.1828E+02
     -3.339  0.2717E+01  0.1857E+02
     -3.232  0.2587E+01  0.1884E+02
     -3.124  0.2807E+01  0.1914E+02
     -3.017  0.2966E+01  0.1946E+02
     -2.910  0.2934E+01  0.1978E+02
     -2.803  0.2659E+01  0.2006E+02
     -2.696  0.2376E+01  0.2032E+02
     -2.589  0.2446E+01  0.2058E+02
     -2.482  0.2922E+01  0.2089E+02
     -2.375  0.3334E+01  0.2125E+02
     -2.267  0.3610E+01  0.2163E+02
     -2.160  0.3611E+01  0.2202E+02
     -2.053  0.3514E+01  0.2240E+02
     -1.946  0.3860E+01  0.2281E+02
     -1.839  0.4808E+01  0.2333E+02
     -1.732  0.5457E+01  0.2391E+02
     -1.625  0.5962E+01  0.2455E+02
     -1.518  0.6323E+01  0.2523E+02
     -1.411  0.6079E+01  0.2588E+02
     -1.303  0.5534E+01  0.2647E+02
     -1.196  0.5252E+01  0.2703E+02
     -1.089  0.5089E+01  0.2758E+02
     -0.982  0.4123E+01  0.2802E+02
     -0.875  0.2967E+01  0.2834E+02
     -0.768  0.2881E+01  0.2865E+02
     -0.661  0.3922E+01  0.2907E+02
     -0.554  0.4888E+01  0.2959E+02
     -0.446  0.5629E+01  0.3019E+02
     -0.339  0.6145E+01  0.3085E+02
     -0.232  0.6178E+01  0.3151E+02
     -0.125  0.6515E+01  0.3221E+02
     -0.018  0.6588E+01  0.3292E+02
      0.089  0.7077E+01  0.3367E+02
      0.196  0.8681E+01  0.3460E+02
      0.303  0.8725E+01  0.3554E+02
      0.410  0.7774E+01  0.3637E+02
      0.518  0.6116E+01  0.3703E+02
      0.625  0.4204E+01  0.3748E+02
      0.732  0.3295E+01  0.3783E+02
      0.839  0.3127E+01  0.3816E+02
      0.946  0.3425E+01  0.3853E+02
      1.053  0.3524E+01  0.3891E+02
      1.160  0.3548E+01  0.3929E+02
      1.267  0.3768E+01  0.3969E+02
      1.375  0.3674E+01  0.4009E+02
      1.482  0.3753E+01  0.4049E+02
      1.589  0.3884E+01  0.4090E+02
      1.696  0.3670E+01  0.4130E+02
      1.803  0.3463E+01  0.4167E+02
      1.910  0.2968E+01  0.4199E+02
      2.017  0.2612E+01  0.4227E+02
      2.124  0.2678E+01  0.4255E+02
      2.231  0.2478E+01  0.4282E+02
      2.339  0.1964E+01  0.4303E+02
      2.446  0.1609E+01  0.4320E+02
      2.553  0.1240E+01  0.4333E+02
      2.660  0.8254E+00  0.4342E+02
      2.767  0.5555E+00  0.4348E+02
      2.874  0.5640E+00  0.4354E+02
      2.981  0.5983E+00  0.4361E+02
      3.088  0.5200E+00  0.4366E+02
      3.196  0.4040E+00  0.4371E+02
      3.303  0.4094E+00  0.4375E+02
      3.410  0.4523E+00  0.4380E+02
      3.517  0.3734E+00  0.4384E+02
      3.624  0.2920E+00  0.4387E+02
      3.731  0.3231E+00  0.4390E+02
      3.838  0.3090E+00  0.4394E+02
      3.945  0.2400E+00  0.4396E+02
      4.052  0.2051E+00  0.4398E+02
      4.160  0.1257E+00  0.4400E+02
      4.267  0.6820E-01  0.4401E+02
      4.374  0.1866E+00  0.4403E+02
      4.481  0.3488E+00  0.4406E+02
      4.588  0.5274E+00  0.4412E+02
      4.695  0.7187E+00  0.4420E+02
      4.802  0.8333E+00  0.4429E+02
      4.909  0.9287E+00  0.4438E+02
      5.017  0.1044E+01  0.4450E+02
      5.124  0.1179E+01  0.4462E+02
      5.231  0.1403E+01  0.4477E+02
      5.338  0.1692E+01  0.4495E+02
      5.445  0.2076E+01  0.4518E+02
      5.552  0.2614E+01  0.4546E+02
      5.659  0.2934E+01  0.4577E+02
      5.766  0.3166E+01  0.4611E+02
      5.873  0.3744E+01  0.4651E+02
      5.981  0.4307E+01  0.4697E+02
      6.088  0.4606E+01  0.4747E+02
      6.195  0.4532E+01  0.4795E+02
      6.302  0.4230E+01  0.4840E+02
      6.409  0.4127E+01  0.4885E+02
      6.516  0.4078E+01  0.4928E+02
      6.623  0.3706E+01  0.4968E+02
      6.730  0.3588E+01  0.5006E+02
      6.838  0.3986E+01  0.5049E+02
      6.945  0.4372E+01  0.5096E+02
      7.052  0.4609E+01  0.5145E+02
      7.159  0.4858E+01  0.5197E+02
      7.266  0.4881E+01  0.5250E+02
      7.373  0.4596E+01  0.5299E+02
      7.480  0.4448E+01  0.5347E+02
      7.587  0.4191E+01  0.5391E+02
      7.694  0.3692E+01  0.5431E+02
      7.802  0.3248E+01  0.5466E+02
      7.909  0.3205E+01  0.5500E+02
      8.016  0.3402E+01  0.5537E+02
      8.123  0.3544E+01  0.5575E+02
      8.230  0.3791E+01  0.5615E+02
      8.337  0.4065E+01  0.5659E+02
      8.444  0.4109E+01  0.5703E+02
      8.551  0.3979E+01  0.5745E+02
      8.659  0.3925E+01  0.5787E+02
      8.766  0.4406E+01  0.5835E+02
      8.873  0.5029E+01  0.5888E+02
      8.980  0.5233E+01  0.5944E+02
      9.087  0.5327E+01  0.6002E+02
      9.194  0.5329E+01  0.6059E+02
      9.301  0.5251E+01  0.6115E+02
      9.408  0.4895E+01  0.6167E+02
      9.515  0.4811E+01  0.6219E+02
      9.623  0.4849E+01  0.6271E+02
      9.730  0.5112E+01  0.6326E+02
      9.837  0.5323E+01  0.6383E+02
      9.944  0.5018E+01  0.6436E+02
     10.051  0.4304E+01  0.6482E+02
     10.158  0.4205E+01  0.6527E+02
     10.265  0.4524E+01  0.6576E+02
     10.372  0.5090E+01  0.6630E+02
     10.480  0.5324E+01  0.6687E+02
     10.587  0.4851E+01  0.6739E+02
     10.694  0.4261E+01  0.6785E+02
     10.801  0.3896E+01  0.6827E+02
     10.908  0.3689E+01  0.6866E+02
     11.015  0.4151E+01  0.6911E+02
     11.122  0.5190E+01  0.6966E+02
     11.229  0.5648E+01  0.7027E+02
     11.336  0.5644E+01  0.7087E+02
     11.444  0.5166E+01  0.7143E+02
     11.551  0.4882E+01  0.7195E+02
     11.658  0.4983E+01  0.7248E+02
     11.765  0.4959E+01  0.7302E+02
     11.872  0.5276E+01  0.7358E+02
     11.979  0.5681E+01  0.7419E+02
     12.086  0.5781E+01  0.7481E+02
     12.193  0.5677E+01  0.7542E+02
     12.301  0.5493E+01  0.7600E+02
     12.408  0.5589E+01  0.7660E+02
     12.515  0.5955E+01  0.7724E+02
     12.622  0.6015E+01  0.7789E+02
     12.729  0.5826E+01  0.7851E+02
     12.836  0.5661E+01  0.7912E+02
     12.943  0.5537E+01  0.7971E+02
     13.050  0.5809E+01  0.8033E+02
     13.157  0.6043E+01  0.8098E+02
     13.265  0.5928E+01  0.8161E+02
     13.372  0.5699E+01  0.8222E+02
     13.479  0.5618E+01  0.8283E+02
     13.586  0.5666E+01  0.8343E+02
     13.693  0.5775E+01  0.8405E+02
     13.800  0.5724E+01  0.8466E+02
     13.907  0.5565E+01  0.8526E+02
     14.014  0.5413E+01  0.8584E+02
     14.121  0.5278E+01  0.8641E+02
     14.229  0.5171E+01  0.8696E+02
     14.336  0.4990E+01  0.8749E+02
     14.443  0.5010E+01  0.8803E+02
     14.550  0.5200E+01  0.8859E+02
     14.657  0.5015E+01  0.8913E+02
     14.764  0.4545E+01  0.8961E+02
     14.871  0.4487E+01  0.9009E+02
     14.978  0.5167E+01  0.9065E+02
     15.086  0.5810E+01  0.9127E+02
     15.193  0.5954E+01  0.9191E+02
     15.300  0.5786E+01  0.9253E+02
     15.407  0.5978E+01  0.9317E+02
     15.514  0.6257E+01  0.9384E+02
     15.621  0.5448E+01  0.9442E+02
     15.728  0.4091E+01  0.9486E+02
     15.835  0.3041E+01  0.9518E+02
     15.942  0.2248E+01  0.9543E+02
     16.050  0.1644E+01  0.9560E+02
     16.157  0.1187E+01  0.9573E+02
     16.264  0.9877E+00  0.9583E+02
     16.371  0.8310E+00  0.9592E+02
     16.478  0.5339E+00  0.9598E+02
     16.585  0.1674E+00  0.9600E+02
     16.692  0.1654E-01  0.9600E+02
     16.799  0.3700E-03  0.9600E+02
     16.907  0.1352E-05  0.9600E+02
     17.014  0.6394E-09  0.9600E+02
     17.121  0.3474E-13  0.9600E+02
     17.228  0.0000E+00  0.9600E+02
     17.335  0.0000E+00  0.9600E+02
     17.442  0.0000E+00  0.9600E+02
     17.549  0.0000E+00  0.9600E+02
     17.656  0.0000E+00  0.9600E+02
     17.763  0.0000E+00  0.9600E+02
     17.871  0.0000E+00  0.9600E+02
     17.978  0.0000E+00  0.9600E+02
