   14   14    1    1
  0.1021318E+02  0.5700971E-09  0.4044058E-09  0.6201871E-09  0.5000000E-15
  1.000000000000000E-004
  CAR 
 SC                                      
     42   1260     48
 
  0.2500000E-01  0.1785714E-01  0.2777778E-01  0.7936508E-03
      1        -12.696807   1.000000
      2        -11.521251   1.000000
      3         -8.657946   1.000000
      4         -8.363498   1.000000
      5         -6.059005   1.000000
      6         -5.127076   1.000000
      7         -4.668576   1.000000
      8         -4.344950   1.000000
      9         -3.951674   1.000000
     10         -3.505600   1.000000
     11         -2.379412   1.000000
     12         -2.365625   1.000000
     13         -1.968155   1.000000
     14         -1.079331   1.000000
     15         -0.041384   1.000000
     16          0.027701   1.000000
     17          0.040951   1.000000
     18          0.080314   1.000000
     19          0.656524   1.000000
     20          2.098578   0.004740
     21          2.136128   0.000888
     22          2.268927   0.000000
     23          5.515206   0.000000
     24          5.709116   0.000000
     25          5.751692   0.000000
     26          5.976600   0.000000
     27          6.740415   0.000000
     28          7.626318   0.000000
     29          7.797911   0.000000
     30          8.600061   0.000000
     31          8.831646   0.000000
     32          8.929092   0.000000
     33          9.058877   0.000000
     34         10.055648   0.000000
     35         11.202564   0.000000
     36         11.387292   0.000000
     37         11.521940   0.000000
     38         11.721772   0.000000
     39         11.963724   0.000000
     40         12.310537   0.000000
     41         12.946992   0.000000
     42         13.343827   0.000000
     43         13.534196   0.000000
     44         15.502112   0.000000
     45         15.531054   0.000000
     46         15.937710   0.000000
     47         16.310017   0.000000
     48         16.434513   0.000000
 
  0.7500000E-01  0.1785714E-01  0.2777778E-01  0.7936508E-03
      1        -12.685675   1.000000
      2        -11.540941   1.000000
      3         -8.652006   1.000000
      4         -8.359919   1.000000
      5         -6.037970   1.000000
      6         -5.245681   1.000000
      7         -4.725348   1.000000
      8         -4.192080   1.000000
      9         -3.935086   1.000000
     10         -3.406528   1.000000
     11         -2.381098   1.000000
     12         -2.374691   1.000000
     13         -1.993307   1.000000
     14         -1.161114   1.000000
     15         -0.045093   1.000000
     16          0.008616   1.000000
     17          0.062435   1.000000
     18          0.095327   1.000000
     19          0.630694   1.000000
     20          2.060626   0.019819
     21          2.127881   0.001312
     22          2.236788   0.000003
     23          5.533834   0.000000
     24          5.710003   0.000000
     25          5.757365   0.000000
     26          6.072452   0.000000
     27          6.718061   0.000000
     28          7.442034   0.000000
     29          7.938132   0.000000
     30          8.638216   0.000000
     31          8.905026   0.000000
     32          8.997428   0.000000
     33          9.079334   0.000000
     34         10.075012   0.000000
     35         11.220272   0.000000
     36         11.279799   0.000000
     37         11.506777   0.000000
     38         11.542370   0.000000
     39         12.021214   0.000000
     40         12.333209   0.000000
     41         13.038434   0.000000
     42         13.409968   0.000000
     43         13.554940   0.000000
     44         15.226962   0.000000
     45         15.589318   0.000000
     46         16.107286   0.000000
     47         16.213219   0.000000
     48         16.348069   0.000000
 
  0.1250000E+00  0.1785714E-01  0.2777778E-01  0.7936508E-03
      1        -12.663525   1.000000
      2        -11.579229   1.000000
      3         -8.639877   1.000000
      4         -8.353484   1.000000
      5         -6.005244   1.000000
      6         -5.409366   1.000000
      7         -4.794077   1.000000
      8         -3.977796   1.000000
      9         -3.894667   1.000000
     10         -3.236065   1.000000
     11         -2.414711   1.000000
     12         -2.365152   1.000000
     13         -2.037196   1.000000
     14         -1.315944   1.000000
     15         -0.091766   1.000000
     16          0.014321   1.000000
     17          0.099626   1.000000
     18          0.121692   1.000000
     19          0.579487   1.000000
     20          2.000662   0.113240
     21          2.098850   0.004688
     22          2.172934   0.000133
     23          5.564076   0.000000
     24          5.707012   0.000000
     25          5.806423   0.000000
     26          6.233580   0.000000
     27          6.676526   0.000000
     28          7.259944   0.000000
     29          8.048627   0.000000
     30          8.708849   0.000000
     31          9.028418   0.000000
     32          9.062643   0.000000
     33          9.181389   0.000000
     34         10.120211   0.000000
     35         11.075730   0.000000
     36         11.257986   0.000000
     37         11.265356   0.000000
     38         11.507626   0.000000
     39         12.128700   0.000000
     40         12.379396   0.000000
     41         13.164207   0.000000
     42         13.239706   0.000000
     43         13.837502   0.000000
     44         14.940992   0.000000
     45         15.691163   0.000000
     46         15.938891   0.000000
     47         16.224800   0.000000
     48         16.420294   0.000000
 
  0.1750000E+00  0.1785714E-01  0.2777778E-01  0.7936508E-03
      1        -12.630580   1.000000
      2        -11.634081   1.000000
      3         -8.621255   1.000000
      4         -8.345564   1.000000
      5         -5.979276   1.000000
      6         -5.575072   1.000000
      7         -4.833810   1.000000
      8         -3.868919   1.000000
      9         -3.706311   1.000000
     10         -3.022939   1.000000
     11         -2.470765   1.000000
     12         -2.350496   1.000000
     13         -2.089172   1.000000
     14         -1.529290   1.000000
     15         -0.179897   1.000000
     16          0.043367   1.000000
     17          0.140572   1.000000
     18          0.158671   1.000000
     19          0.510048   1.000000
     20          1.926197   0.437866
     21          2.046163   0.031944
     22          2.080940   0.009519
     23          5.591042   0.000000
     24          5.709779   0.000000
     25          5.915136   0.000000
     26          6.440240   0.000000
     27          6.621723   0.000000
     28          7.093453   0.000000
     29          8.137441   0.000000
     30          8.799113   0.000000
     31          9.045830   0.000000
     32          9.220676   0.000000
     33          9.374418   0.000000
     34         10.206521   0.000000
     35         10.795655   0.000000
     36         10.959092   0.000000
     37         11.313238   0.000000
     38         11.554696   0.000000
     39         12.252158   0.000000
     40         12.470321   0.000000
     41         13.001822   0.000000
     42         13.227220   0.000000
     43         14.175156   0.000000
     44         14.748089   0.000000
     45         15.649139   0.000000
     46         15.822908   0.000000
     47         16.222401   0.000000
     48         16.495077   0.000000
 
  0.2250000E+00  0.1785714E-01  0.2777778E-01  0.7936508E-03
      1        -12.587193   1.000000
      2        -11.702784   1.000000
      3         -8.596124   1.000000
      4         -8.338069   1.000000
      5         -5.981476   1.000000
      6         -5.724832   1.000000
      7         -4.811365   1.000000
      8         -3.805417   1.000000
      9         -3.449776   1.000000
     10         -2.788085   1.000000
     11         -2.551135   1.000000
     12         -2.330442   1.000000
     13         -2.139217   1.000000
     14         -1.783573   1.000000
     15         -0.295034   1.000000
     16          0.079998   1.000000
     17          0.145562   1.000000
     18          0.212811   1.000000
     19          0.453429   1.000000
     20          1.843811   0.843449
     21          1.944755   0.337671
     22          1.992173   0.137986
     23          5.601709   0.000000
     24          5.732063   0.000000
     25          6.081723   0.000000
     26          6.561297   0.000000
     27          6.680123   0.000000
     28          6.950789   0.000000
     29          8.212212   0.000000
     30          8.881533   0.000000
     31          9.012132   0.000000
     32          9.426594   0.000000
     33          9.606375   0.000000
     34         10.349570   0.000000
     35         10.462726   0.000000
     36         10.672938   0.000000
     37         11.379196   0.000000
     38         11.659958   0.000000
     39         12.331075   0.000000
     40         12.647487   0.000000
     41         12.725921   0.000000
     42         13.136202   0.000000
     43         14.520056   0.000000
     44         14.729520   0.000000
     45         15.358126   0.000000
     46         15.958672   0.000000
     47         16.080402   0.000000
     48         16.322189   0.000000
 
  0.2750000E+00  0.1785714E-01  0.2777778E-01  0.7936508E-03
      1        -12.533854   1.000000
      2        -11.782269   1.000000
      3         -8.564979   1.000000
      4         -8.333283   1.000000
      5         -6.019917   1.000000
      6         -5.851136   1.000000
      7         -4.711976   1.000000
      8         -3.730320   1.000000
      9         -3.199305   1.000000
     10         -2.665019   1.000000
     11         -2.535765   1.000000
     12         -2.308416   1.000000
     13         -2.183069   1.000000
     14         -2.052496   1.000000
     15         -0.429769   1.000000
     16          0.045636   1.000000
     17          0.146104   1.000000
     18          0.270108   1.000000
     19          0.463675   1.000000
     20          1.759701   0.986034
     21          1.799649   0.948794
     22          1.912846   0.512934
     23          5.604780   0.000000
     24          5.762185   0.000000
     25          6.301927   0.000000
     26          6.505158   0.000000
     27          6.812299   0.000000
     28          6.966323   0.000000
     29          8.276868   0.000000
     30          8.894067   0.000000
     31          8.966498   0.000000
     32          9.645268   0.000000
     33          9.860612   0.000000
     34         10.089019   0.000000
     35         10.441672   0.000000
     36         10.592338   0.000000
     37         11.436270   0.000000
     38         11.819852   0.000000
     39         12.371363   0.000000
     40         12.422492   0.000000
     41         12.836443   0.000000
     42         12.958428   0.000000
     43         14.751105   0.000000
     44         14.936163   0.000000
     45         15.091005   0.000000
     46         15.827981   0.000000
     47         15.907835   0.000000
     48         16.150290   0.000000
 
  0.3250000E+00  0.1785714E-01  0.2777778E-01  0.7936508E-03
      1        -12.471194   1.000000
      2        -11.869342   1.000000
      3         -8.528997   1.000000
      4         -8.333586   1.000000
      5         -6.079143   1.000000
      6         -5.955018   1.000000
      7         -4.542623   1.000000
      8         -3.642397   1.000000
      9         -2.990536   1.000000
     10         -2.783069   1.000000
     11         -2.386245   1.000000
     12         -2.311707   1.000000
     13         -2.225749   1.000000
     14         -2.183262   1.000000
     15         -0.574308   1.000000
     16         -0.105585   1.000000
     17          0.196730   1.000000
     18          0.321365   1.000000
     19          0.537485   1.000000
     20          1.628105   0.999975
     21          1.690325   0.999262
     22          1.830488   0.884377
     23          5.613080   0.000000
     24          5.782535   0.000000
     25          6.462724   0.000000
     26          6.569627   0.000000
     27          6.717127   0.000000
     28          7.252798   0.000000
     29          8.333998   0.000000
     30          8.817280   0.000000
     31          8.874632   0.000000
     32          9.707122   0.000000
     33          9.870431   0.000000
     34         10.119788   0.000000
     35         10.363681   0.000000
     36         10.888394   0.000000
     37         11.457504   0.000000
     38         12.022993   0.000000
     39         12.107269   0.000000
     40         12.375515   0.000000
     41         12.611240   0.000000
     42         13.163465   0.000000
     43         14.727586   0.000000
     44         14.972750   0.000000
     45         15.279740   0.000000
     46         15.439070   0.000000
     47         15.567710   0.000000
     48         16.284778   0.000000
 
  0.3750000E+00  0.1785714E-01  0.2777778E-01  0.7936508E-03
      1        -12.400023   1.000000
      2        -11.960942   1.000000
      3         -8.490041   1.000000
      4         -8.341064   1.000000
      5         -6.134282   1.000000
      6         -6.041044   1.000000
      7         -4.319728   1.000000
      8         -3.542292   1.000000
      9         -2.951297   1.000000
     10         -2.913939   1.000000
     11         -2.514799   1.000000
     12         -2.265210   1.000000
     13         -2.171588   1.000000
     14         -2.050072   1.000000
     15         -0.710471   1.000000
     16         -0.295166   1.000000
     17          0.252294   1.000000
     18          0.359369   1.000000
     19          0.646702   1.000000
     20          1.451778   1.000000
     21          1.632245   0.999968
     22          1.750404   0.990089
     23          5.631568   0.000000
     24          5.783912   0.000000
     25          6.441744   0.000000
     26          6.633613   0.000000
     27          6.877674   0.000000
     28          7.563228   0.000000
     29          8.386999   0.000000
     30          8.636038   0.000000
     31          8.740905   0.000000
     32          9.329590   0.000000
     33         10.096443   0.000000
     34         10.353898   0.000000
     35         10.444438   0.000000
     36         11.251461   0.000000
     37         11.431207   0.000000
     38         11.788279   0.000000
     39         12.172356   0.000000
     40         12.260463   0.000000
     41         12.523501   0.000000
     42         13.347148   0.000000
     43         14.560931   0.000000
     44         14.959542   0.000000
     45         15.045785   0.000000
     46         15.266944   0.000000
     47         15.626557   0.000000
     48         16.406123   0.000000
 
  0.4250000E+00  0.1785714E-01  0.2777778E-01  0.7936508E-03
      1        -12.321362   1.000000
      2        -12.054262   1.000000
      3         -8.450596   1.000000
      4         -8.357017   1.000000
      5         -6.168871   1.000000
      6         -6.109160   1.000000
      7         -4.058604   1.000000
      8         -3.431266   1.000000
      9         -3.173659   1.000000
     10         -3.048465   1.000000
     11         -2.462425   1.000000
     12         -2.299329   1.000000
     13         -2.056843   1.000000
     14         -1.901065   1.000000
     15         -0.801605   1.000000
     16         -0.495050   1.000000
     17          0.304804   1.000000
     18          0.377927   1.000000
     19          0.779453   1.000000
     20          1.271903   1.000000
     21          1.600295   0.999996
     22          1.679887   0.999561
     23          5.660204   0.000000
     24          5.765628   0.000000
     25          6.444681   0.000000
     26          6.564899   0.000000
     27          7.217120   0.000000
     28          7.884156   0.000000
     29          8.327983   0.000000
     30          8.440592   0.000000
     31          8.648100   0.000000
     32          8.958693   0.000000
     33         10.318724   0.000000
     34         10.542488   0.000000
     35         10.630630   0.000000
     36         11.368872   0.000000
     37         11.483671   0.000000
     38         11.650862   0.000000
     39         11.882665   0.000000
     40         12.422385   0.000000
     41         12.587221   0.000000
     42         13.346443   0.000000
     43         14.506917   0.000000
     44         14.710507   0.000000
     45         14.933888   0.000000
     46         15.026694   0.000000
     47         15.939264   0.000000
     48         16.463623   0.000000
 
  0.4750000E+00  0.1785714E-01  0.2777778E-01  0.7936508E-03
      1        -12.236460   1.000000
      2        -12.146824   1.000000
      3         -8.413505   1.000000
      4         -8.381564   1.000000
      5         -6.176277   1.000000
      6         -6.155591   1.000000
      7         -3.771670   1.000000
      8         -3.471051   1.000000
      9         -3.309503   1.000000
     10         -3.181612   1.000000
     11         -2.392095   1.000000
     12         -2.340154   1.000000
     13         -1.930407   1.000000
     14         -1.857584   1.000000
     15         -0.794613   1.000000
     16         -0.676712   1.000000
     17          0.347518   1.000000
     18          0.373605   1.000000
     19          0.930586   1.000000
     20          1.096233   1.000000
     21          1.598582   0.999996
     22          1.626776   0.999977
     23          5.695944   0.000000
     24          5.733536   0.000000
     25          6.468780   0.000000
     26          6.509770   0.000000
     27          7.577346   0.000000
     28          7.936298   0.000000
     29          8.256433   0.000000
     30          8.499841   0.000000
     31          8.564783   0.000000
     32          8.600789   0.000000
     33         10.511555   0.000000
     34         10.612581   0.000000
     35         10.870286   0.000000
     36         11.150129   0.000000
     37         11.434122   0.000000
     38         11.606533   0.000000
     39         12.033425   0.000000
     40         12.309905   0.000000
     41         12.844332   0.000000
     42         13.133291   0.000000
     43         14.564553   0.000000
     44         14.616442   0.000000
     45         14.807863   0.000000
     46         14.876040   0.000000
     47         16.210795   0.000000
     48         16.401498   0.000000
 
  0.2500000E-01  0.5357143E-01  0.2777778E-01  0.7936508E-03
      1        -12.690581   1.000000
      2        -11.515621   1.000000
      3         -8.653067   1.000000
      4         -8.357472   1.000000
      5         -6.052216   1.000000
      6         -5.117901   1.000000
      7         -4.662940   1.000000
      8         -4.362458   1.000000
      9         -4.084325   1.000000
     10         -3.498850   1.000000
     11         -2.727843   1.000000
     12         -2.206665   1.000000
     13         -1.578493   1.000000
     14         -1.078115   1.000000
     15         -0.130830   1.000000
     16         -0.035946   1.000000
     17          0.073555   1.000000
     18          0.086369   1.000000
     19          0.686655   1.000000
     20          2.027674   0.055751
     21          2.051047   0.027302
     22          2.297750   0.000000
     23          5.580105   0.000000
     24          5.659551   0.000000
     25          5.802583   0.000000
     26          5.915634   0.000000
     27          6.817501   0.000000
     28          7.705526   0.000000
     29          7.875245   0.000000
     30          8.418560   0.000000
     31          8.856324   0.000000
     32          8.988578   0.000000
     33          9.073308   0.000000
     34         10.205728   0.000000
     35         11.262437   0.000000
     36         11.368511   0.000000
     37         11.545551   0.000000
     38         11.707121   0.000000
     39         11.988664   0.000000
     40         12.383015   0.000000
     41         12.942908   0.000000
     42         13.272909   0.000000
     43         13.450990   0.000000
     44         15.477106   0.000000
     45         15.499523   0.000000
     46         15.933067   0.000000
     47         16.268735   0.000000
     48         16.338727   0.000000
 
  0.7500000E-01  0.5357143E-01  0.2777778E-01  0.7936508E-03
      1        -12.679457   1.000000
      2        -11.535305   1.000000
      3         -8.647116   1.000000
      4         -8.353924   1.000000
      5         -6.031072   1.000000
      6         -5.237277   1.000000
      7         -4.719939   1.000000
      8         -4.229323   1.000000
      9         -4.047652   1.000000
     10         -3.399946   1.000000
     11         -2.744774   1.000000
     12         -2.201548   1.000000
     13         -1.604162   1.000000
     14         -1.159860   1.000000
     15         -0.126436   1.000000
     16         -0.026862   1.000000
     17          0.060006   1.000000
     18          0.101973   1.000000
     19          0.660725   1.000000
     20          1.986664   0.155885
     21          2.046790   0.031314
     22          2.264393   0.000000
     23          5.597858   0.000000
     24          5.673026   0.000000
     25          5.794439   0.000000
     26          6.013638   0.000000
     27          6.795260   0.000000
     28          7.523955   0.000000
     29          8.012696   0.000000
     30          8.457564   0.000000
     31          8.933474   0.000000
     32          9.059624   0.000000
     33          9.092836   0.000000
     34         10.212137   0.000000
     35         11.248186   0.000000
     36         11.290709   0.000000
     37         11.521493   0.000000
     38         11.540045   0.000000
     39         12.046430   0.000000
     40         12.404953   0.000000
     41         13.037632   0.000000
     42         13.327748   0.000000
     43         13.482304   0.000000
     44         15.241239   0.000000
     45         15.531656   0.000000
     46         16.045258   0.000000
     47         16.173395   0.000000
     48         16.333784   0.000000
 
  0.1250000E+00  0.5357143E-01  0.2777778E-01  0.7936508E-03
      1        -12.657319   1.000000
      2        -11.573578   1.000000
      3         -8.634960   1.000000
      4         -8.347545   1.000000
      5         -5.998107   1.000000
      6         -5.401408   1.000000
      7         -4.788879   1.000000
      8         -4.110372   1.000000
      9         -3.912449   1.000000
     10         -3.230046   1.000000
     11         -2.778437   1.000000
     12         -2.191245   1.000000
     13         -1.650945   1.000000
     14         -1.314501   1.000000
     15         -0.135539   1.000000
     16         -0.025080   1.000000
     17          0.065525   1.000000
     18          0.129276   1.000000
     19          0.609394   1.000000
     20          1.926452   0.436446
     21          2.019899   0.069232
     22          2.198216   0.000031
     23          5.625316   0.000000
     24          5.714286   0.000000
     25          5.802418   0.000000
     26          6.174046   0.000000
     27          6.753998   0.000000
     28          7.346086   0.000000
     29          8.120158   0.000000
     30          8.530000   0.000000
     31          9.040570   0.000000
     32          9.142156   0.000000
     33          9.204849   0.000000
     34         10.231070   0.000000
     35         11.050665   0.000000
     36         11.244567   0.000000
     37         11.317627   0.000000
     38         11.551644   0.000000
     39         12.154524   0.000000
     40         12.449723   0.000000
     41         13.156939   0.000000
     42         13.168210   0.000000
     43         13.758813   0.000000
     44         14.968979   0.000000
     45         15.619912   0.000000
     46         15.934659   0.000000
     47         16.110805   0.000000
     48         16.432279   0.000000
 
  0.1750000E+00  0.5357143E-01  0.2777778E-01  0.7936508E-03
      1        -12.624389   1.000000
      2        -11.628406   1.000000
      3         -8.616308   1.000000
      4         -8.339705   1.000000
      5         -5.971784   1.000000
      6         -5.567270   1.000000
      7         -4.828969   1.000000
      8         -4.045669   1.000000
      9         -3.681045   1.000000
     10         -3.020287   1.000000
     11         -2.826195   1.000000
     12         -2.175647   1.000000
     13         -1.711839   1.000000
     14         -1.527464   1.000000
     15         -0.193014   1.000000
     16         -0.016797   1.000000
     17          0.102440   1.000000
     18          0.164181   1.000000
     19          0.539139   1.000000
     20          1.852417   0.812469
     21          1.971324   0.213430
     22          2.101124   0.004266
     23          5.646789   0.000000
     24          5.756163   0.000000
     25          5.878907   0.000000
     26          6.377068   0.000000
     27          6.699726   0.000000
     28          7.186503   0.000000
     29          8.206360   0.000000
     30          8.623689   0.000000
     31          9.076774   0.000000
     32          9.289843   0.000000
     33          9.404399   0.000000
     34         10.277525   0.000000
     35         10.769929   0.000000
     36         10.941188   0.000000
     37         11.368498   0.000000
     38         11.613875   0.000000
     39         12.282661   0.000000
     40         12.534344   0.000000
     41         12.923084   0.000000
     42         13.233601   0.000000
     43         14.076698   0.000000
     44         14.799213   0.000000
     45         15.628324   0.000000
     46         15.776785   0.000000
     47         16.099762   0.000000
     48         16.517034   0.000000
 
  0.2250000E+00  0.5357143E-01  0.2777778E-01  0.7936508E-03
      1        -12.581030   1.000000
      2        -11.697080   1.000000
      3         -8.591144   1.000000
      4         -8.332310   1.000000
      5         -5.973628   1.000000
      6         -5.717026   1.000000
      7         -4.806955   1.000000
      8         -3.983181   1.000000
      9         -3.424759   1.000000
     10         -2.912134   1.000000
     11         -2.765732   1.000000
     12         -2.154924   1.000000
     13         -1.789513   1.000000
     14         -1.771366   1.000000
     15         -0.295903   1.000000
     16          0.002826   1.000000
     17          0.141521   1.000000
     18          0.197513   1.000000
     19          0.476615   1.000000
     20          1.770501   0.979597
     21          1.902154   0.572851
     22          1.979054   0.183027
     23          5.652893   0.000000
     24          5.792914   0.000000
     25          6.037136   0.000000
     26          6.602881   0.000000
     27          6.643530   0.000000
     28          7.057652   0.000000
     29          8.279002   0.000000
     30          8.715452   0.000000
     31          9.059072   0.000000
     32          9.484294   0.000000
     33          9.643849   0.000000
     34         10.334753   0.000000
     35         10.464043   0.000000
     36         10.673852   0.000000
     37         11.428005   0.000000
     38         11.733220   0.000000
     39         12.372333   0.000000
     40         12.631513   0.000000
     41         12.719864   0.000000
     42         13.144439   0.000000
     43         14.380526   0.000000
     44         14.826728   0.000000
     45         15.378182   0.000000
     46         15.839823   0.000000
     47         16.013279   0.000000
     48         16.368332   0.000000
 
  0.2750000E+00  0.5357143E-01  0.2777778E-01  0.7936508E-03
      1        -12.527719   1.000000
      2        -11.776524   1.000000
      3         -8.559965   1.000000
      4         -8.327635   1.000000
      5         -6.011845   1.000000
      6         -5.843223   1.000000
      7         -4.707913   1.000000
      8         -3.911662   1.000000
      9         -3.171580   1.000000
     10         -2.989369   1.000000
     11         -2.526786   1.000000
     12         -2.140122   1.000000
     13         -2.044611   1.000000
     14         -1.847416   1.000000
     15         -0.425185   1.000000
     16         -0.012144   1.000000
     17          0.148311   1.000000
     18          0.237688   1.000000
     19          0.475138   1.000000
     20          1.687065   0.999371
     21          1.797958   0.951260
     22          1.857627   0.791992
     23          5.654990   0.000000
     24          5.827789   0.000000
     25          6.254710   0.000000
     26          6.584060   0.000000
     27          6.795131   0.000000
     28          7.020511   0.000000
     29          8.341691   0.000000
     30          8.765325   0.000000
     31          9.004081   0.000000
     32          9.689716   0.000000
     33          9.895794   0.000000
     34         10.052360   0.000000
     35         10.372337   0.000000
     36         10.658590   0.000000
     37         11.474344   0.000000
     38         11.903813   0.000000
     39         12.346849   0.000000
     40         12.420822   0.000000
     41         12.870627   0.000000
     42         12.987233   0.000000
     43         14.628538   0.000000
     44         15.018837   0.000000
     45         15.131834   0.000000
     46         15.730209   0.000000
     47         15.842300   0.000000
     48         16.223551   0.000000
 
  0.3250000E+00  0.5357143E-01  0.2777778E-01  0.7936508E-03
      1        -12.465088   1.000000
      2        -11.863552   1.000000
      3         -8.523946   1.000000
      4         -8.328054   1.000000
      5         -6.070986   1.000000
      6         -5.946962   1.000000
      7         -4.538800   1.000000
      8         -3.829667   1.000000