       N       E                     dE             d eps       ncg     rms          rms(c)
DAV:   1     0.788723504298E+02    0.78872E+02   -0.20017E+04120960   0.863E+02
DAV:   2    -0.917386617121E+02   -0.17061E+03   -0.15986E+03166440   0.167E+02
DAV:   3    -0.975414597514E+02   -0.58028E+01   -0.57675E+01178152   0.274E+01
DAV:   4    -0.975755815317E+02   -0.34122E-01   -0.34120E-01144000   0.244E+00
DAV:   5    -0.975759599128E+02   -0.37838E-03   -0.37837E-03177840   0.245E-01    0.123E+01
DAV:   6    -0.922532790135E+02    0.53227E+01   -0.38190E+00175632   0.644E+00    0.679E+00
DAV:   7    -0.906068274042E+02    0.16465E+01   -0.31786E+00180504   0.581E+00    0.169E+00
DAV:   8    -0.906196088512E+02   -0.12781E-01   -0.22540E-01132936   0.163E+00    0.740E-01
DAV:   9    -0.906343315200E+02   -0.14723E-01   -0.16858E-02169488   0.449E-01    0.203E-01
DAV:  10    -0.906386155646E+02   -0.42840E-02   -0.25862E-03133656   0.179E-01    0.649E-02
DAV:  11    -0.906397489641E+02   -0.11334E-02   -0.65001E-04159336   0.892E-02    0.336E-02
DAV:  12    -0.906398559587E+02   -0.10699E-03   -0.78677E-05149688   0.344E-02    0.584E-03
DAV:  13    -0.906398633858E+02   -0.74271E-05   -0.63742E-06168960   0.103E-02    0.195E-03
DAV:  14    -0.906398643048E+02   -0.91904E-06   -0.54288E-07151032   0.325E-03
   1 F= -.92602161E+02 E0= -.92595453E+02  d E =-.134152E-01
