   14   14    1    1
  0.1021960E+02  0.5697000E-09  0.4047900E-09  0.6204200E-09  0.5000000E-15
  1.000000000000000E-004
  CAR 
 Kpoints                                 
     42   1260     48
 
  0.0000000E+00  0.0000000E+00  0.0000000E+00  0.1146657E-03
      1        -12.733207   1.000000
      2        -11.576165   1.000000
      3         -8.662216   1.000000
      4         -8.424960   1.000000
      5         -6.077651   1.000000
      6         -5.059635   1.000000
      7         -4.638569   1.000000
      8         -4.349825   1.000000
      9         -3.973735   1.000000
     10         -3.598918   1.000000
     11         -2.422234   1.000000
     12         -2.242824   1.000000
     13         -2.183608   1.000000
     14         -1.053202   1.000000
     15         -0.037702   1.000000
     16         -0.003832   1.000000
     17          0.149111   1.000000
     18          0.172576   1.000000
     19          0.564235   1.000000
     20          2.079170   0.000000
     21          2.125363   0.000000
     22          2.214168   0.000000
     23          5.410893   0.000000
     24          5.801086   0.000000
     25          5.816633   0.000000
     26          5.910068   0.000000
     27          6.785109   0.000000
     28          7.672029   0.000000
     29          7.700474   0.000000
     30          8.633476   0.000000
     31          8.751805   0.000000
     32          8.852238   0.000000
     33          9.039875   0.000000
     34         10.028946   0.000000
     35         11.143843   0.000000
     36         11.398823   0.000000
     37         11.768724   0.000000
     38         11.801066   0.000000
     39         11.898250   0.000000
     40         12.353837   0.000000
     41         12.803841   0.000000
     42         13.393760   0.000000
     43         13.572603   0.000000
     44         15.553580   0.000000
     45         15.566930   0.000000
     46         15.941183   0.000000
     47         16.357363   0.000000
     48         16.597652   0.000000
 
  0.5263158E-01  0.0000000E+00  0.0000000E+00  0.2293315E-03
      1        -12.727106   1.000000
      2        -11.586803   1.000000
      3         -8.659392   1.000000
      4         -8.423143   1.000000
      5         -6.064800   1.000000
      6         -5.141604   1.000000
      7         -4.670392   1.000000
      8         -4.253059   1.000000
      9         -3.965184   1.000000
     10         -3.539745   1.000000
     11         -2.419609   1.000000
     12         -2.244529   1.000000
     13         -2.203575   1.000000
     14         -1.099314   1.000000
     15         -0.031591   1.000000
     16          0.006359   1.000000
     17          0.153826   1.000000
     18          0.156262   1.000000
     19          0.550199   1.000000
     20          2.066220   0.000000
     21          2.113925   0.000000
     22          2.197707   0.000000
     23          5.424789   0.000000
     24          5.793140   0.000000
     25          5.796563   0.000000
     26          5.991326   0.000000
     27          6.771859   0.000000
     28          7.496442   0.000000
     29          7.846062   0.000000
     30          8.653786   0.000000
     31          8.807509   0.000000
     32          8.889122   0.000000
     33          9.042800   0.000000
     34         10.047258   0.000000
     35         11.154147   0.000000
     36         11.339038   0.000000
     37         11.664082   0.000000
     38         11.765522   0.000000
     39         11.931046   0.000000
     40         12.366018   0.000000
     41         12.873463   0.000000
     42         13.502671   0.000000
     43         13.515313   0.000000
     44         15.362033   0.000000
     45         15.601595   0.000000
     46         16.079327   0.000000
     47         16.344298   0.000000
     48         16.373286   0.000000
 
  0.1052632E+00  0.0000000E+00  0.0000000E+00  0.2293315E-03
      1        -12.708859   1.000000
      2        -11.618073   1.000000
      3         -8.650752   1.000000
      4         -8.418022   1.000000
      5         -6.031425   1.000000
      6         -5.313917   1.000000
      7         -4.739262   1.000000
      8         -4.036780   1.000000
      9         -3.939603   1.000000
     10         -3.384971   1.000000
     11         -2.411644   1.000000
     12         -2.261415   1.000000
     13         -2.249605   1.000000
     14         -1.231963   1.000000
     15         -0.013496   1.000000
     16          0.035360   1.000000
     17          0.098421   1.000000
     18          0.175651   1.000000
     19          0.508690   1.000000
     20          2.028587   0.000010
     21          2.080588   0.000000
     22          2.148186   0.000000
     23          5.463646   0.000000
     24          5.771319   0.000000
     25          5.813848   0.000000
     26          6.155622   0.000000
     27          6.734244   0.000000
     28          7.299213   0.000000
     29          7.968368   0.000000
     30          8.711681   0.000000
     31          8.956721   0.000000
     32          8.994401   0.000000
     33          9.049904   0.000000
     34         10.103484   0.000000
     35         11.168167   0.000000
     36         11.185477   0.000000
     37         11.409557   0.000000
     38         11.702722   0.000000
     39         12.026195   0.000000
     40         12.402138   0.000000
     41         13.023548   0.000000
     42         13.356174   0.000000
     43         13.770498   0.000000
     44         15.058319   0.000000
     45         15.695071   0.000000
     46         16.062751   0.000000
     47         16.245409   0.000000
     48         16.419401   0.000000
 
  0.1578947E+00  0.0000000E+00  0.0000000E+00  0.2293315E-03
      1        -12.678676   1.000000
      2        -11.668156   1.000000
      3         -8.635957   1.000000
      4         -8.410568   1.000000
      5         -5.992994   1.000000
      6         -5.502659   1.000000
      7         -4.795215   1.000000
      8         -3.897208   1.000000
      9         -3.776388   1.000000
     10         -3.172930   1.000000
     11         -2.398032   1.000000
     12         -2.351662   1.000000
     13         -2.257907   1.000000
     14         -1.436481   1.000000
     15          0.008815   1.000000
     16          0.015852   1.000000
     17          0.079014   1.000000
     18          0.195958   1.000000
     19          0.448408   1.000000
     20          1.969937   0.004488
     21          2.028163   0.000010
     22          2.065694   0.000000
     23          5.519942   0.000000
     24          5.741179   0.000000
     25          5.896548   0.000000
     26          6.369099   0.000000
     27          6.678101   0.000000
     28          7.113215   0.000000
     29          8.065293   0.000000
     30          8.796816   0.000000
     31          9.030289   0.000000
     32          9.161510   0.000000
     33          9.179398   0.000000
     34         10.203567   0.000000
     35         10.908143   0.000000
     36         11.092075   0.000000
     37         11.237606   0.000000
     38         11.677465   0.000000
     39         12.166837   0.000000
     40         12.468508   0.000000
     41         13.122263   0.000000
     42         13.132874   0.000000
     43         14.113649   0.000000
     44         14.819058   0.000000
     45         15.757113   0.000000
     46         15.826310   0.000000
     47         16.320201   0.000000
     48         16.491669   0.000000
 
  0.2105263E+00  0.0000000E+00  0.0000000E+00  0.2293315E-03
      1        -12.636919   1.000000
      2        -11.734310   1.000000
      3         -8.614832   1.000000
      4         -8.402371   1.000000
      5         -5.971730   1.000000
      6         -5.681013   1.000000
      7         -4.795296   1.000000
      8         -3.838369   1.000000
      9         -3.502241   1.000000
     10         -2.930552   1.000000
     11         -2.467057   1.000000
     12         -2.378266   1.000000
     13         -2.269063   1.000000
     14         -1.693575   1.000000
     15         -0.111036   1.000000
     16          0.055134   1.000000
     17          0.131705   1.000000
     18          0.172231   1.000000
     19          0.413661   1.000000
     20          1.896279   0.298184
     21          1.951684   0.018009
     22          1.960992   0.009138
     23          5.583728   0.000000
     24          5.710302   0.000000
     25          6.045809   0.000000
     26          6.611703   0.000000
     27          6.621525   0.000000
     28          6.949385   0.000000
     29          8.148502   0.000000
     30          8.886549   0.000000
     31          8.995139   0.000000
     32          9.391270   0.000000
     33          9.406683   0.000000
     34         10.360205   0.000000
     35         10.583244   0.000000
     36         10.773001   0.000000
     37         11.304734   0.000000
     38         11.722101   0.000000
     39         12.302327   0.000000
     40         12.600468   0.000000
     41         12.839024   0.000000
     42         13.078729   0.000000
     43         14.486787   0.000000
     44         14.746513   0.000000
     45         15.441036   0.000000
     46         15.977583   0.000000
     47         16.215558   0.000000
     48         16.489769   0.000000
 
  0.2631579E+00  0.0000000E+00  0.0000000E+00  0.2293315E-03
      1        -12.584121   1.000000
      2        -11.813218   1.000000
      3         -8.587728   1.000000
      4         -8.395545   1.000000
      5         -5.983359   1.000000
      6         -5.837906   1.000000
      7         -4.714854   1.000000
      8         -3.763625   1.000000
      9         -3.233997   1.000000
     10         -2.676047   1.000000
     11         -2.600071   1.000000
     12         -2.353464   1.000000
     13         -2.281758   1.000000
     14         -1.978818   1.000000
     15         -0.255414   1.000000
     16          0.057988   1.000000
     17          0.102298   1.000000
     18          0.187236   1.000000
     19          0.453897   1.000000
     20          1.809996   0.971986
     21          1.815599   0.960143
     22          1.884588   0.421150
     23          5.644828   0.000000
     24          5.686069   0.000000
     25          6.257453   0.000000
     26          6.544567   0.000000
     27          6.811059   0.000000
     28          6.905640   0.000000
     29          8.223046   0.000000
     30          8.929178   0.000000
     31          8.934783   0.000000
     32          9.632494   0.000000
     33          9.667287   0.000000
     34         10.212662   0.000000
     35         10.516749   0.000000
     36         10.588579   0.000000
     37         11.369344   0.000000
     38         11.840559   0.000000
     39         12.389562   0.000000
     40         12.525165   0.000000
     41         12.823329   0.000000
     42         12.840778   0.000000
     43         14.831590   0.000000
     44         14.867671   0.000000
     45         15.128352   0.000000
     46         15.966126   0.000000
     47         16.094137   0.000000
     48         16.136090   0.000000
 
  0.3157895E+00  0.0000000E+00  0.0000000E+00  0.2293315E-03
      1        -12.520976   1.000000
      2        -11.901316   1.000000
      3         -8.555747   1.000000
      4         -8.392510   1.000000
      5         -6.024093   1.000000
      6         -5.967075   1.000000
      7         -4.554528   1.000000
      8         -3.673711   1.000000
      9         -3.003051   1.000000
     10         -2.743831   1.000000
     11         -2.434783   1.000000
     12         -2.372309   1.000000
     13         -2.284946   1.000000
     14         -2.207706   1.000000
     15         -0.415480   1.000000
     16         -0.112671   1.000000
     17          0.154327   1.000000
     18          0.239108   1.000000
     19          0.541742   1.000000
     20          1.647046   1.000000
     21          1.737268   0.999964
     22          1.805386   0.979384
     23          5.673578   0.000000
     24          5.694180   0.000000
     25          6.486641   0.000000
     26          6.524529   0.000000
     27          6.697211   0.000000
     28          7.215684   0.000000
     29          8.290686   0.000000
     30          8.841095   0.000000
     31          8.869485   0.000000
     32          9.818383   0.000000
     33          9.883181   0.000000
     34          9.935867   0.000000
     35         10.397254   0.000000
     36         10.896672   0.000000
     37         11.403349   0.000000
     38         12.021466   0.000000
     39         12.194007   0.000000
     40         12.455196   0.000000
     41         12.501838   0.000000
     42         13.081862   0.000000
     43         14.839861   0.000000
     44         14.953925   0.000000
     45         15.242846   0.000000
     46         15.601284   0.000000
     47         15.658264   0.000000
     48         16.288260   0.000000
 
  0.3684211E+00  0.0000000E+00  0.0000000E+00  0.2293315E-03
      1        -12.448396   1.000000
      2        -11.995099   1.000000
      3         -8.520820   1.000000
      4         -8.395609   1.000000
      5         -6.076862   1.000000
      6         -6.064436   1.000000
      7         -4.330775   1.000000
      8         -3.569589   1.000000
      9         -2.920474   1.000000
     10         -2.892474   1.000000
     11         -2.525936   1.000000
     12         -2.349371   1.000000
     13         -2.177584   1.000000
     14         -2.154649   1.000000
     15         -0.575412   1.000000
     16         -0.308462   1.000000
     17          0.206987   1.000000
     18          0.280595   1.000000
     19          0.656713   1.000000
     20          1.471031   1.000000
     21          1.671289   1.000000
     22          1.730613   0.999984
     23          5.674541   0.000000
     24          5.724896   0.000000
     25          6.447191   0.000000
     26          6.605173   0.000000
     27          6.838423   0.000000
     28          7.547048   0.000000
     29          8.353809   0.000000
     30          8.652482   0.000000
     31          8.743705   0.000000
     32          9.418649   0.000000
     33         10.142269   0.000000
     34         10.191446   0.000000
     35         10.450380   0.000000
     36         11.275029   0.000000
     37         11.385969   0.000000
     38         11.855796   0.000000
     39         12.129011   0.000000
     40         12.252702   0.000000
     41         12.509294   0.000000
     42         13.288099   0.000000
     43         14.617336   0.000000
     44         15.012617   0.000000
     45         15.135510   0.000000
     46         15.333277   0.000000
     47         15.601306   0.000000
     48         16.411866   0.000000
 
  0.4210526E+00  0.0000000E+00  0.0000000E+00  0.2293315E-03
      1        -12.367543   1.000000
      2        -12.091318   1.000000
      3         -8.485576   1.000000
      4         -8.406571   1.000000
      5         -6.127708   1.000000
      6         -6.124382   1.000000
      7         -4.061566   1.000000
      8         -3.452493   1.000000
      9         -3.134164   1.000000
     10         -3.041180   1.000000
     11         -2.503999   1.000000
     12         -2.367935   1.000000
     13         -2.058599   1.000000
     14         -1.975443   1.000000
     15         -0.703755   1.000000
     16         -0.505682   1.000000
     17          0.254675   1.000000
     18          0.305327   1.000000
     19          0.792531   1.000000
     20          1.290568   1.000000
     21          1.627056   1.000000
     22          1.668170   1.000000
     23          5.687197   0.000000
     24          5.734218   0.000000
     25          6.432535   0.000000
     26          6.532513   0.000000
     27          7.189264   0.000000
     28          7.896072   0.000000
     29          8.327010   0.000000
     30          8.416637   0.000000
     31          8.648063   0.000000
     32          9.023169   0.000000
     33         10.394585   0.000000
     34         10.415850   0.000000
     35         10.634211   0.000000
     36         11.330947   0.000000
     37         11.519573   0.000000
     38         11.681945   0.000000
     39         11.782677   0.000000
     40         12.509008   0.000000
     41         12.513227   0.000000
     42         13.310874   0.000000
     43         14.539477   0.000000
     44         14.814901   0.000000
     45         14.971515   0.000000
     46         15.026642   0.000000
     47         15.930460   0.000000
     48         16.467165   0.000000
 
  0.4736842E+00  0.0000000E+00  0.0000000E+00  0.2293315E-03
      1        -12.279853   1.000000
      2        -12.187074   1.000000
      3         -8.453014   1.000000
      4         -8.425982   1.000000
      5         -6.156729   1.000000
      6         -6.153869   1.000000
      7         -3.761768   1.000000
      8         -3.445259   1.000000
      9         -3.323990   1.000000
     10         -3.186057   1.000000
     11         -2.444305   1.000000
     12         -2.400074   1.000000
     13         -1.935342   1.000000
     14         -1.890899   1.000000
     15         -0.747106   1.000000
     16         -0.669763   1.000000
     17          0.290753   1.000000
     18          0.308891   1.000000
     19          0.945908   1.000000
     20          1.113449   1.000000
     21          1.611339   1.000000
     22          1.626134   1.000000
     23          5.706682   0.000000
     24          5.725434   0.000000
     25          6.443864   0.000000
     26          6.478298   0.000000
     27          7.565483   0.000000
     28          7.952148   0.000000
     29          8.259873   0.000000
     30          8.484263   0.000000
     31          8.560865   0.000000
     32          8.636194   0.000000
     33         10.573133   0.000000
     34         10.575940   0.000000
     35         10.893475   0.000000
     36         11.194795   0.000000
     37         11.316129   0.000000
     38         11.468930   0.000000
     39         12.092256   0.000000
     40         12.381114   0.000000
     41         12.802041   0.000000
     42         13.100979   0.000000
     43         14.620840   0.000000
     44         14.736353   0.000000
     45         14.778847   0.000000
     46         14.851013   0.000000
     47         16.210123   0.000000
     48         16.403107   0.000000
 
  0.0000000E+00  0.3703704E-01  0.0000000E+00  0.2293315E-03
      1        -12.729892   1.000000
      2        -11.573184   1.000000
      3         -8.659612   1.000000
      4         -8.421751   1.000000
      5         -6.073978   1.000000
      6         -5.054502   1.000000
      7         -4.635518   1.000000
      8         -4.359312   1.000000
      9         -4.049678   1.000000
     10         -3.595478   1.000000
     11         -2.601260   1.000000
     12         -2.324277   1.000000
     13         -1.810159   1.000000
     14         -1.052564   1.000000
     15         -0.077973   1.000000
     16         -0.051355   1.000000
     17          0.151554   1.000000
     18          0.195181   1.000000
     19          0.580371   1.000000
     20          2.026678   0.000012
     21          2.088109   0.000000
     22          2.234945   0.000000
     23          5.446804   0.000000
     24          5.758943   0.000000
     25          5.860279   0.000000
     26          5.877049   0.000000
     27          6.827846   0.000000
     28          7.727609   0.000000
     29          7.728587   0.000000
     30          8.508411   0.000000
     31          8.751568   0.000000
     32          8.920072   0.000000
     33          9.048088   0.000000
     34         10.114777   0.000000
     35         11.177503   0.000000
     36         11.387201   0.000000
     37         11.757527   0.000000
     38         11.816439   0.000000
     39         11.912397   0.000000
     40         12.393750   0.000000
     41         12.805392   0.000000
     42         13.348010   0.000000
     43         13.525309   0.000000
     44         15.538033   0.000000
     45         15.548363   0.000000
     46         15.952634   0.000000
     47         16.330890   0.000000
     48         16.482526   0.000000
 
  0.5263158E-01  0.3703704E-01  0.0000000E+00  0.4586630E-03
      1        -12.723789   1.000000
      2        -11.583820   1.000000
      3         -8.656785   1.000000
      4         -8.419942   1.000000
      5         -6.061095   1.000000
      6         -5.136882   1.000000
      7         -4.667373   1.000000
      8         -4.266915   1.000000
      9         -4.036502   1.000000
     10         -3.536365   1.000000
     11         -2.610768   1.000000
     12         -2.321520   1.000000
     13         -1.822800   1.000000
     14         -1.098675   1.000000
     15         -0.072032   1.000000
     16         -0.042606   1.000000
     17          0.158905   1.000000
     18          0.178327   1.000000
     19          0.566288   1.000000
     20          2.014046   0.000057
     21          2.076682   0.000000
     22          2.218060   0.000000
     23          5.460955   0.000000
     24          5.746417   0.000000
     25          5.838793   0.000000
     26          5.964023   0.000000
     27          6.814632   0.000000
     28          7.540087   0.000000
     29          7.886013   0.000000
     30          8.529766   0.000000
     31          8.807973   0.000000
     32          8.956394   0.000000
     33          9.052293   0.000000
     34         10.129331   0.000000
     35         11.187434   0.000000
     36         11.327472   0.000000
     37         11.653876   0.000000
     38         11.779557   0.000000
     39         11.945281   0.000000
     40         12.405766   0.000000
     41         12.875244   0.000000
     42         13.457575   0.000000
     43         13.468292   0.000000
     44         15.367460   0.000000
     45         15.571369   0.000000
     46         16.067053   0.000000
     47         16.315498   0.000000
     48         16.355345   0.000000
 
  0.1052632E+00  0.3703704E-01  0.0000000E+00  0.4586630E-03
      1        -12.705546   1.000000
      2        -11.615081   1.000000
      3         -8.648137   1.000000
      4         -8.414842   1.000000
      5         -6.027621   1.000000
      6         -5.309574   1.000000
      7         -4.736350   1.000000
      8         -4.093533   1.000000
      9         -3.968070   1.000000
     10         -3.381827   1.000000
     11         -2.639581   1.000000
     12         -2.313191   1.000000
     13         -1.858073   1.000000
     14         -1.231288   1.000000
     15         -0.054739   1.000000
     16         -0.021934   1.000000
     17          0.132441   1.000000
     18          0.179199   1.000000
     19          0.524611   1.000000
     20          1.977199   0.002413
     21          2.043382   0.000001
     22          2.167452   0.000000
     23          5.500497   0.000000
     24          5.753575   0.000000
     25          5.828406   0.000000
     26          6.126085   0.000000
     27          6.777122   0.000000
     28          7.344669   0.000000
     29          8.006824   0.000000
     30          8.590317   0.000000
     31          8.958732   0.000000
     32          9.056976   0.000000
     33          9.066896   0.000000
     34         10.173936   0.000000
     35         11.156774   0.000000
     36         11.217674   0.000000
     37         11.397893   0.000000
     38         11.719910   0.000000
     39         12.040625   0.000000
     40         12.441408   0.000000
     41         13.026175   0.000000
     42         13.309878   0.000000
     43         13.723971   0.000000
     44         15.072848   0.000000
     45         15.660045   0.000000
     46         16.055432   0.000000
     47         16.184551   0.000000
     48         16.430416   0.000000
 
  0.1578947E+00  0.3703704E-01  0.0000000E+00  0.4586630E-03
      1        -12.675371   1.000000
      2        -11.665150   1.000000
      3         -8.633328   1.000000
      4         -8.407423   1.000000
      5         -5.989019   1.000000
      6         -5.498445   1.000000
      7         -4.792499   1.000000
      8         -4.007400   1.000000
      9         -3.751870   1.000000
     10         -3.170611   1.000000
     11         -2.688011   1.000000
     12         -2.299100   1.000000
     13         -1.909210   1.000000
     14         -1.435704   1.000000
     15         -0.027923   1.000000
     16         -0.026689   1.000000
     17          0.092769   1.000000
     18          0.203068   1.000000
     19          0.463182   1.000000
     20          1.919305   0.118821
     21          1.991022   0.000665
     22          2.083745   0.000000
     23          5.557691   0.000000
     24          5.755623   0.000000
     25          5.879703   0.000000
     26          6.336636   0.000000
     27          6.721143   0.000000
     28          7.162428   0.000000
     29          8.102167   0.000000
     30          8.678474   0.000000
     31          9.058236   0.000000
     32          9.164910   0.000000
     33          9.237164   0.000000
     34         10.253752   0.000000
     35         10.897274   0.000000
     36         11.080132   0.000000
     37         11.267960   0.000000
     38         11.701362   0.000000
     39         12.181988   0.000000
     40         12.506449   0.000000
     41         13.077195   0.000000
     42         13.136865   0.000000
     43         14.057788   0.000000
     44         14.846467   0.000000
     45         15.735273   0.000000
     46         15.813350   0.000000
     47         16.219133   0.000000
     48         16.526400   0.000000
 
  0.2105263E+00  0.3703704E-01  0.0000000E+00  0.4586630E-03
      1        -12.633628   1.000000
      2        -11.731285   1.000000
      3         -8.612188   1.000000
      4         -8.399273   1.000000
      5         -5.967544   1.000000
      6         -5.676813   1.000000
      7         -4.792827   1.000000
      8         -3.943758   1.000000
      9         -3.482968   1.000000
     10         -2.934110   1.000000
     11         -2.751700   1.000000
     12         -2.279053   1.000000
     13         -1.968069   1.000000
     14         -1.692621   1.000000
     15         -0.117830   1.000000
     16          0.002774   1.000000
     17          0.118238   1.000000
     18          0.193628   1.000000
     19          0.422623   1.000000
     20          1.845329   0.818967
     21          1.923950   0.094713
     22          1.969500   0.004653
     23          5.622281   0.000000
     24          5.732417   0.000000
     25          6.021957   0.000000
     26          6.581576   0.000000
     27          6.654974   0.000000
     28          7.007543   0.000000
     29          8.184101   0.000000
     30          8.769927   0.000000
     31          9.035423   0.000000
     32          9.395553   0.000000
     33          9.462131   0.000000
     34         10.372046   0.000000
     35         10.580218   0.000000
     36         10.767976   0.000000
     37         11.332167   0.000000
     38         11.754215   0.000000
     39         12.321394   0.000000
     40         12.631937   0.000000
     41         12.797819   0.000000
     42         13.083700   0.000000
     43         14.400843   0.000000
     44         14.807061   0.000000
     45         15.452668   0.000000
     46         15.923884   0.000000
     47         16.143631   0.000000
     48         16.500703   0.000000
 
  0.2631579E+00  0.3703704E-01  0.0000000E+00  0.4586630E-03
      1        -12.580845   1.000000
      2        -11.810171   1.000000
      3         -8.585068   1.000000
      4         -8.392505   1.000000
      5         -5.979000   1.000000
      6         -5.833673   1.000000
      7         -4.712610   1.000000
      8         -3.870170   1.000000
      9         -3.213397   1.000000
     10         -2.862737   1.000000
     11         -2.656117   1.000000
     12         -2.255339   1.000000
     13         -2.027891   1.000000
     14         -1.977014   1.000000
     15         -0.255190   1.000000
     16          0.001362   1.000000
     17          0.133294   1.000000
     18          0.167988   1.000000
     19          0.457503   1.000000
     20          1.759039   0.999599
     21          1.832848   0.896968
     22          1.847674   0.800982
     23          5.683765   0.000000
     24          5.710898   0.000000
     25          6.231717   0.000000
     26          6.588185   0.000000
     27          6.789756   0.000000
     28          6.946721   0.000000
     29          8.257514   0.000000
     30          8.819107   0.000000
     31          8.986582   0.000000
     32          9.637346   0.000000
     33          9.715309   0.000000
     34         10.186922   0.000000
     35         10.460826   0.000000
     36         10.652667   0.000000
     37         11.392027   0.000000
     38         11.880354   0.000000
     39         12.412666   0.000000
     40         12.483149   0.000000
     41         12.846321   0.000000
     42         12.854728   0.000000
     43         14.695410   0.000000
     44         14.981797   0.000000
     45         15.149638   0.000000
     46         15.936946   0.000000
     47         15.949000   0.000000
     48         16.250131   0.000000
 
  0.3157895E+00  0.3703704E-01  0.0000000E+00  0.4586630E-03
      1        -12.517718   1.000000
      2        -11.898243   1.000000
      3         -8.553070   1.000000
      4         -8.389535   1.000000
      5         -6.019637   1.000000
      6         -5.962789   1.000000
      7         -4.552445   1.000000
      8         -3.783943   1.000000