   14   14    1    1
  0.1017062E+02  0.5687885E-09  0.4041423E-09  0.6194273E-09  0.5000000E-15
  1.000000000000000E-004
  CAR 
 Convergence                             
     42    175     48
 
  0.5000000E-01  0.3571429E-01  0.0000000E+00  0.3174603E-02
      1        -12.730329   1.000000
      2        -11.587845   1.000000
      3         -8.650936   1.000000
      4         -8.413543   1.000000
      5         -6.050109   1.000000
      6         -5.115902   1.000000
      7         -4.650148   1.000000
      8         -4.266235   1.000000
      9         -4.020126   1.000000
     10         -3.529041   1.000000
     11         -2.572189   1.000000
     12         -2.302546   1.000000
     13         -1.810305   1.000000
     14         -1.074873   1.000000
     15         -0.050560   1.000000
     16         -0.020745   1.000000
     17          0.181707   1.000000
     18          0.205036   1.000000
     19          0.591208   1.000000
     20          2.045200   0.000083
     21          2.108988   0.000000
     22          2.247990   0.000000
     23          5.495512   0.000000
     24          5.787268   0.000000
     25          5.879135   0.000000
     26          5.997205   0.000000
     27          6.857430   0.000000
     28          7.591360   0.000000
     29          7.923317   0.000000
     30          8.590891   0.000000
     31          8.867250   0.000000
     32          9.007478   0.000000
     33          9.125820   0.000000
     34         10.169985   0.000000
     35         11.227267   0.000000
     36         11.396467   0.000000
     37         11.729445   0.000000
     38         11.841287   0.000000
     39         11.993904   0.000000
     40         12.452387   0.000000
     41         12.934662   0.000000
     42         13.520190   0.000000
     43         13.547272   0.000000
     44         15.465308   0.000000
     45         15.647941   0.000000
     46         16.143618   0.000000
     47         16.406013   0.000000
     48         16.432263   0.000000
 
  0.1500000E+00  0.3571429E-01  0.0000000E+00  0.3174603E-02
      1        -12.686528   1.000000
      2        -11.661581   1.000000
      3         -8.629967   1.000000
      4         -8.402039   1.000000
      5         -5.981590   1.000000
      6         -5.459177   1.000000
      7         -4.774177   1.000000
      8         -3.997854   1.000000
      9         -3.779505   1.000000
     10         -3.189727   1.000000
     11         -2.642847   1.000000
     12         -2.282128   1.000000
     13         -1.890137   1.000000
     14         -1.382340   1.000000
     15         -0.009908   1.000000
     16          0.005699   1.000000
     17          0.116785   1.000000
     18          0.223926   1.000000
     19          0.496254   1.000000
     20          1.958745   0.093404
     21          2.030840   0.000391
     22          2.126228   0.000000
     23          5.583678   0.000000
     24          5.798970   0.000000
     25          5.903265   0.000000
     26          6.344808   0.000000
     27          6.771298   0.000000
     28          7.228109   0.000000
     29          8.136941   0.000000
     30          8.727146   0.000000
     31          9.129509   0.000000
     32          9.194741   0.000000
     33          9.261539   0.000000
     34         10.289105   0.000000
     35         11.002202   0.000000
     36         11.192282   0.000000
     37         11.301061   0.000000
     38         11.757450   0.000000
     39         12.211582   0.000000
     40         12.543711   0.000000
     41         13.189614   0.000000
     42         13.194587   0.000000
     43         14.082146   0.000000
     44         14.950704   0.000000
     45         15.823861   0.000000
     46         15.898854   0.000000
     47         16.305199   0.000000
     48         16.590953   0.000000
 
  0.2500000E+00  0.3571429E-01  0.0000000E+00  0.3174603E-02
      1        -12.600797   1.000000
      2        -11.794490   1.000000
      3         -8.586517   1.000000
      4         -8.387355   1.000000
      5         -5.960248   1.000000
      6         -5.786879   1.000000
      7         -4.728787   1.000000
      8         -3.869205   1.000000
      9         -3.267817   1.000000
     10         -2.813032   1.000000
     11         -2.695311   1.000000
     12         -2.241043   1.000000
     13         -2.002266   1.000000
     14         -1.887456   1.000000
     15         -0.191644   1.000000
     16          0.036118   1.000000
     17          0.168236   1.000000
     18          0.177578   1.000000
     19          0.465912   1.000000
     20          1.811140   0.997847
     21          1.895132   0.684085
     22          1.897649   0.658352
     23          5.704073   0.000000
     24          5.755715   0.000000
     25          6.212577   0.000000
     26          6.644352   0.000000
     27          6.805159   0.000000
     28          6.972935   0.000000
     29          8.290184   0.000000
     30          8.874960   0.000000
     31          9.064243   0.000000
     32          9.638322   0.000000
     33          9.704396   0.000000
     34         10.338025   0.000000
     35         10.547102   0.000000
     36         10.688241   0.000000
     37         11.424213   0.000000
     38         11.897893   0.000000
     39         12.446930   0.000000
     40         12.634110   0.000000
     41         12.848045   0.000000
     42         12.988311   0.000000
     43         14.709726   0.000000
     44         14.994731   0.000000
     45         15.290908   0.000000
     46         16.059588   0.000000
     47         16.076511   0.000000
     48         16.373128   0.000000
 
  0.3500000E+00  0.3571429E-01  0.0000000E+00  0.3174603E-02
      1        -12.477150   1.000000
      2        -11.963857   1.000000
      3         -8.524698   1.000000
      4         -8.384285   1.000000
      5         -6.042099   1.000000
      6         -6.020312   1.000000
      7         -4.400497   1.000000
      8         -3.699185   1.000000
      9         -3.008271   1.000000
     10         -2.881757   1.000000
     11         -2.426681   1.000000
     12         -2.232606   1.000000
     13         -2.121352   1.000000
     14         -2.104952   1.000000
     15         -0.490714   1.000000
     16         -0.218521   1.000000
     17          0.193463   1.000000
     18          0.269500   1.000000
     19          0.639607   1.000000
     20          1.558978   1.000000
     21          1.687225   1.000000
     22          1.748722   0.999998
     23          5.739673   0.000000
     24          5.789831   0.000000
     25          6.541893   0.000000
     26          6.712358   0.000000
     27          6.738664   0.000000
     28          7.458339   0.000000
     29          8.416144   0.000000
     30          8.740022   0.000000
     31          8.868092   0.000000
     32          9.589191   0.000000
     33         10.118344   0.000000
     34         10.174284   0.000000
     35         10.460246   0.000000
     36         11.219505   0.000000
     37         11.458280   0.000000
     38         12.013381   0.000000
     39         12.264363   0.000000
     40         12.342531   0.000000
     41         12.577279   0.000000
     42         13.315261   0.000000
     43         14.774922   0.000000
     44         15.046176   0.000000
     45         15.344673   0.000000
     46         15.445563   0.000000
     47         15.648489   0.000000
     48         16.453082   0.000000
 
  0.4500000E+00  0.3571429E-01  0.0000000E+00  0.3174603E-02
      1        -12.322266   1.000000
      2        -12.146298   1.000000
      3         -8.458400   1.000000
      4         -8.407138   1.000000
      5         -6.133658   1.000000
      6         -6.128493   1.000000
      7         -3.883897   1.000000
      8         -3.488679   1.000000
      9         -3.283335   1.000000
     10         -3.249007   1.000000
     11         -2.345992   1.000000
     12         -2.214971   1.000000
     13         -1.937890   1.000000
     14         -1.887640   1.000000
     15         -0.711148   1.000000
     16         -0.576386   1.000000
     17          0.277174   1.000000
     18          0.311134   1.000000
     19          0.901034   1.000000
     20          1.219270   1.000000
     21          1.606433   1.000000
     22          1.634273   1.000000
     23          5.766584   0.000000
     24          5.802554   0.000000
     25          6.519306   0.000000
     26          6.582835   0.000000
     27          7.410717   0.000000
     28          8.122265   0.000000
     29          8.141841   0.000000
     30          8.535405   0.000000
     31          8.675863   0.000000
     32          8.840945   0.000000
     33         10.557220   0.000000
     34         10.576371   0.000000
     35         10.824401   0.000000
     36         11.283455   0.000000
     37         11.468569   0.000000
     38         11.670045   0.000000
     39         12.005186   0.000000
     40         12.545868   0.000000
     41         12.773368   0.000000
     42         13.312544   0.000000
     43         14.651397   0.000000
     44         14.807748   0.000000
     45         14.934798   0.000000
     46         14.992994   0.000000
     47         16.183257   0.000000
     48         16.526604   0.000000
 
  0.5000000E-01  0.1071429E+00  0.0000000E+00  0.3174603E-02
      1        -12.706212   1.000000
      2        -11.566269   1.000000
      3         -8.631993   1.000000
      4         -8.390244   1.000000
      5         -6.023123   1.000000
      6         -5.082093   1.000000
      7         -4.627909   1.000000
      8         -4.563764   1.000000
      9         -4.164505   1.000000
     10         -3.505954   1.000000
     11         -3.266874   1.000000
     12         -1.771741   1.000000
     13         -1.070262   1.000000
     14         -1.010046   1.000000
     15         -0.285306   1.000000
     16         -0.257305   1.000000
     17          0.195183   1.000000
     18          0.275306   1.000000
     19          0.669961   1.000000
     20          1.776206   0.999939
     21          1.856921   0.940611
     22          2.300421   0.000000
     23          5.611907   0.000000
     24          5.747141   0.000000
     25          5.778314   0.000000
     26          6.050269   0.000000
     27          7.145291   0.000000
     28          7.877553   0.000000
     29          8.128240   0.000000
     30          8.235227   0.000000
     31          8.870708   0.000000
     32          9.166578   0.000000
     33          9.215799   0.000000
     34         10.625770   0.000000
     35         11.326620   0.000000
     36         11.445157   0.000000
     37         11.662772   0.000000
     38         11.944609   0.000000
     39         12.104319   0.000000
     40         12.734892   0.000000
     41         12.933604   0.000000
     42         13.253980   0.000000
     43         13.262600   0.000000
     44         15.408950   0.000000
     45         15.462254   0.000000
     46         15.932990   0.000000
     47         15.953482   0.000000
     48         16.299671   0.000000
 
  0.1500000E+00  0.1071429E+00  0.0000000E+00  0.3174603E-02
      1        -12.662509   1.000000
      2        -11.639850   1.000000
      3         -8.610885   1.000000
      4         -8.379118   1.000000
      5         -5.952804   1.000000
      6         -5.429032   1.000000
      7         -4.753980   1.000000
      8         -4.479185   1.000000
      9         -3.739146   1.000000
     10         -3.348407   1.000000
     11         -3.151226   1.000000
     12         -1.749849   1.000000
     13         -1.376904   1.000000
     14         -1.131105   1.000000
     15         -0.245935   1.000000
     16         -0.173802   1.000000
     17          0.163339   1.000000
     18          0.245231   1.000000
     19          0.567397   1.000000
     20          1.695403   1.000000
     21          1.780222   0.999904
     22          2.169048   0.000000
     23          5.687463   0.000000
     24          5.845088   0.000000
     25          5.978019   0.000000
     26          6.150753   0.000000
     27          7.061273   0.000000
     28          7.551639   0.000000
     29          8.274088   0.000000
     30          8.409262   0.000000
     31          9.201158   0.000000
     32          9.222850   0.000000
     33          9.475923   0.000000
     34         10.555330   0.000000
     35         10.932233   0.000000
     36         11.144264   0.000000
     37         11.500249   0.000000
     38         11.930395   0.000000
     39         12.324649   0.000000
     40         12.794484   0.000000
     41         12.929970   0.000000
     42         13.218835   0.000000
     43         13.797302   0.000000
     44         15.036460   0.000000
     45         15.475014   0.000000
     46         15.820537   0.000000
     47         15.874961   0.000000
     48         16.479844   0.000000
 
  0.2500000E+00  0.1071429E+00  0.0000000E+00  0.3174603E-02
      1        -12.576979   1.000000
      2        -11.772477   1.000000
      3         -8.567235   1.000000
      4         -8.365149   1.000000
      5         -5.928679   1.000000
      6         -5.756336   1.000000
      7         -4.712011   1.000000
      8         -4.369660   1.000000
      9         -3.471263   1.000000
     10         -3.211926   1.000000
     11         -2.683257   1.000000
     12         -1.882898   1.000000
     13         -1.705190   1.000000
     14         -1.296099   1.000000
     15         -0.197539   1.000000
     16         -0.194327   1.000000
     17          0.073921   1.000000
     18          0.232510   1.000000
     19          0.490696   1.000000
     20          1.559893   1.000000
     21          1.649677   1.000000
     22          1.919791   0.413598
     23          5.897455   0.000000
     24          5.972211   0.000000
     25          6.049246   0.000000
     26          6.601624   0.000000
     27          6.939662   0.000000
     28          7.322769   0.000000
     29          8.479763   0.000000
     30          8.544143   0.000000
     31          9.166715   0.000000
     32          9.675407   0.000000
     33          9.931200   0.000000
     34         10.180588   0.000000
     35         10.412574   0.000000
     36         10.887268   0.000000
     37         11.568906   0.000000
     38         12.164109   0.000000
     39         12.373491   0.000000
     40         12.609697   0.000000
     41         13.027950   0.000000
     42         13.079887   0.000000
     43         14.375589   0.000000
     44         15.165394   0.000000
     45         15.234099   0.000000
     46         15.721562   0.000000
     47         15.780918   0.000000
     48         16.499547   0.000000
 
  0.3500000E+00  0.1071429E+00  0.0000000E+00  0.3174603E-02
      1        -12.453612   1.000000
      2        -11.941465   1.000000
      3         -8.505180   1.000000
      4         -8.362982   1.000000
      5         -6.009322   1.000000
      6         -5.988835   1.000000
      7         -4.385872   1.000000
      8         -4.221486   1.000000
      9         -3.644260   1.000000
     10         -2.830515   1.000000
     11         -2.344431   1.000000
     12         -2.198817   1.000000
     13         -1.640399   1.000000
     14         -1.460693   1.000000
     15         -0.451522   1.000000
     16         -0.283808   1.000000
     17          0.106866   1.000000
     18          0.135581   1.000000
     19          0.650402   1.000000
     20          1.420046   1.000000
     21          1.503659   1.000000
     22          1.594398   1.000000
     23          5.916156   0.000000
     24          6.046350   0.000000
     25          6.555221   0.000000
     26          6.848856   0.000000
     27          6.921044   0.000000
     28          7.415217   0.000000
     29          8.465992   0.000000
     30          8.653228   0.000000
     31          8.998944   0.000000
     32          9.423161   0.000000
     33         10.131448   0.000000
     34         10.160674   0.000000
     35         10.498408   0.000000
     36         11.297602   0.000000
     37         11.421392   0.000000
     38         11.903916   0.000000
     39         12.365712   0.000000
     40         12.602065   0.000000
     41         12.778578   0.000000
     42         13.519445   0.000000
     43         14.836079   0.000000
     44         14.841789   0.000000
     45         15.229820   0.000000
     46         15.378374   0.000000
     47         15.730024   0.000000
     48         16.465192   0.000000
 
  0.4500000E+00  0.1071429E+00  0.0000000E+00  0.3174603E-02
      1        -12.299080   1.000000
      2        -12.123505   1.000000
      3         -8.438548   1.000000
      4         -8.386694   1.000000
      5         -6.101354   1.000000
      6         -6.095704   1.000000
      7         -4.041169   1.000000
      8         -3.876831   1.000000
      9         -3.835196   1.000000
     10         -3.270344   1.000000
     11         -2.091492   1.000000
     12         -1.895615   1.000000
     13         -1.572221   1.000000
     14         -1.572020   1.000000
     15         -0.672474   1.000000
     16         -0.572932   1.000000
     17          0.138587   1.000000
     18          0.169983   1.000000
     19          0.910485   1.000000
     20          1.225547   1.000000
     21          1.366112   1.000000
     22          1.390550   1.000000
     23          5.966305   0.000000
     24          6.030664   0.000000
     25          6.836648   0.000000
     26          6.886828   0.000000
     27          7.225598   0.000000
     28          7.941665   0.000000
     29          7.989247   0.000000
     30          8.675235   0.000000
     31          8.747152   0.000000
     32          8.861241   0.000000
     33         10.380004   0.000000
     34         10.627253   0.000000
     35         10.862429   0.000000
     36         10.972618   0.000000
     37         11.615579   0.000000
     38         11.729863   0.000000
     39         12.085868   0.000000
     40         12.717349   0.000000
     41         13.084130   0.000000
     42         13.545810   0.000000
     43         14.617543   0.000000
     44         14.801511   0.000000
     45         14.896487   0.000000
     46         15.113475   0.000000
     47         16.206165   0.000000
     48         16.500183   0.000000
 
  0.5000000E-01  0.1785714E+00  0.0000000E+00  0.3174603E-02
      1        -12.661653   1.000000
      2        -11.526481   1.000000
      3         -8.597311   1.000000
      4         -8.347253   1.000000
      5         -5.973223   1.000000
      6         -5.121224   1.000000
      7         -4.990364   1.000000
      8         -4.585757   1.000000
      9         -4.148821   1.000000
     10         -3.890245   1.000000
     11         -3.452412   1.000000
     12         -1.183881   1.000000
     13         -1.060829   1.000000
     14         -0.631472   1.000000
     15         -0.523045   1.000000
     16         -0.149706   1.000000
     17          0.216502   1.000000
     18          0.328870   1.000000
     19          0.748909   1.000000
     20          1.391407   1.000000
     21          1.455930   1.000000
     22          2.338932   0.000000
     23          5.319863   0.000000
     24          5.487384   0.000000
     25          6.165122   0.000000
     26          6.240530   0.000000
     27          7.584324   0.000000
     28          7.672971   0.000000
     29          8.362557   0.000000
     30          8.782627   0.000000
     31          8.938256   0.000000
     32          9.311642   0.000000
     33          9.432563   0.000000
     34         10.937102   0.000000
     35         11.375920   0.000000
     36         11.632706   0.000000
     37         11.750140   0.000000
     38         12.146469   0.000000
     39         12.320875   0.000000
     40         12.805950   0.000000
     41         12.820453   0.000000
     42         13.076145   0.000000
     43         13.279154   0.000000
     44         14.757996   0.000000
     45         15.236111   0.000000
     46         15.424356   0.000000
     47         15.496106   0.000000
     48         16.042475   0.000000
 
  0.1500000E+00  0.1785714E+00  0.0000000E+00  0.3174603E-02
      1        -12.618137   1.000000
      2        -11.599768   1.000000
      3         -8.575915   1.000000
      4         -8.336845   1.000000
      5         -5.899469   1.000000
      6         -5.381305   1.000000
      7         -5.020419   1.000000
      8         -4.715950   1.000000
      9         -3.956998   1.000000
     10         -3.696532   1.000000
     11         -3.111740   1.000000
     12         -1.368707   1.000000
     13         -1.157021   1.000000
     14         -0.737733   1.000000
     15         -0.484877   1.000000
     16         -0.069317   1.000000
     17          0.198886   1.000000
     18          0.270505   1.000000
     19          0.636605   1.000000
     20          1.311998   1.000000
     21          1.386022   1.000000
     22          2.202498   0.000000
     23          5.399946   0.000000
     24          5.835475   0.000000
     25          6.186485   0.000000
     26          6.278696   0.000000
     27          7.503185   0.000000
     28          7.829560   0.000000
     29          8.094721   0.000000
     30          8.872447   0.000000
     31          9.321601   0.000000
     32          9.343767   0.000000
     33          9.718089   0.000000
     34         10.572378   0.000000
     35         10.836872   0.000000
     36         11.335303   0.000000
     37         11.768356   0.000000
     38         12.257200   0.000000
     39         12.490177   0.000000
     40         12.556662   0.000000
     41         13.228079   0.000000
     42         13.329629   0.000000
     43         13.504632   0.000000
     44         14.765803   0.000000
     45         14.895883   0.000000
     46         15.371543   0.000000
     47         15.559636   0.000000
     48         16.061844   0.000000
 
  0.2500000E+00  0.1785714E+00  0.0000000E+00  0.3174603E-02
      1        -12.532969   1.000000
      2        -11.731856   1.000000
      3         -8.531858   1.000000
      4         -8.324219   1.000000
      5         -5.869900   1.000000
      6         -5.701333   1.000000
      7         -4.928568   1.000000
      8         -4.680669   1.000000
      9         -4.081761   1.000000
     10         -3.160849   1.000000
     11         -2.639052   1.000000
     12         -1.866428   1.000000
     13         -1.116039   1.000000
     14         -0.876023   1.000000
     15         -0.431452   1.000000
     16         -0.056852   1.000000
     17          0.036539   1.000000
     18          0.283097   1.000000
     19          0.521008   1.000000
     20          1.179992   1.000000
     21          1.267348   1.000000
     22          1.944901   0.176568
     23          5.722173   0.000000
     24          6.141428   0.000000
     25          6.314203   0.000000
     26          6.407863   0.000000
     27          7.399862   0.000000
     28          7.904257   0.000000
     29          8.063181   0.000000
     30          9.000714   0.000000
     31          9.310886   0.000000
     32          9.779090   0.000000
     33          9.905251   0.000000
     34         10.199780   0.000000
     35         10.310720   0.000000
     36         11.125760   0.000000
     37         11.641247   0.000000
     38         12.164049   0.000000
     39         12.570106   0.000000
     40         12.856547   0.000000
     41         13.112728   0.000000
     42         13.506837   0.000000
     43         14.027660   0.000000
     44         14.671666   0.000000
     45         14.946216   0.000000
     46         15.387424   0.000000
     47         15.581150   0.000000
     48         16.272270   0.000000
 
  0.3500000E+00  0.1785714E+00  0.0000000E+00  0.3174603E-02
      1        -12.410129   1.000000
      2        -11.900152   1.000000
      3         -8.469369   1.000000
      4         -8.323780   1.000000
      5         -5.948244   1.000000
      6         -5.930808   1.000000
      7         -4.791850   1.000000
      8         -4.358924   1.000000
      9         -4.247753   1.000000
     10         -2.791161   1.000000
     11         -2.302791   1.000000
     12         -2.157581   1.000000
     13         -1.059069   1.000000
     14         -1.012401   1.000000
     15         -0.434799   1.000000
     16         -0.344281   1.000000
     17          0.080824   1.000000
     18          0.086432   1.000000
     19          0.668171   1.000000
     20          1.050005   1.000000
     21          1.134140   1.000000
     22          1.608773   1.000000
     23          6.151821   0.000000
     24          6.259927   0.000000
     25          6.440177   0.000000
     26          6.844084   0.000000
     27          7.342471   0.000000
     28          7.824607   0.000000
     29          8.115959   0.000000
     30          9.100452   0.000000
     31          9.155736   0.000000
     32          9.232422   0.000000
     33          9.948397   0.000000
     34         10.247811   0.000000
     35         10.757079   0.000000
     36         11.136623   0.000000
     37         11.397128   0.000000
     38         12.010486   0.000000
     39         12.428689   0.000000
     40         13.044414   0.000000
     41         13.095280   0.000000
     42         13.853792   0.000000
     43         14.455674   0.000000
     44         14.468236   0.000000
     45         15.103767   0.000000
     46         15.195840   0.000000
     47         15.691813   0.000000
     48         16.447816   0.000000
 
  0.4500000E+00  0.1785714E+00  0.0000000E+00  0.3174603E-02
      1        -12.256252   1.000000
      2        -12.081420   1.000000
      3         -8.402083   1.000000
      4         -8.349105   1.000000
      5         -6.041350   1.000000
      6         -6.034634   1.000000
      7         -4.622833   1.000000
      8         -4.435697   1.000000
      9         -3.845028   1.000000
     10         -3.247571   1.000000
     11         -2.021199   1.000000
     12         -1.854488   1.000000
     13         -1.082441   1.000000
     14         -1.018840   1.000000
     15         -0.604765   1.000000
     16         -0.596122   1.000000
     17          0.030584   1.000000
     18          0.074153   1.000000
     19          0.926205   1.000000
     20          0.987820   1.000000
     21          1.029109   1.000000
     22          1.254227   1.000000
     23          6.243241   0.000000
     24          6.360315   0.000000
     25          6.915619   0.000000
     26          7.259586   0.000000
     27          7.319293   0.000000
     28          7.662737   0.000000
     29          7.972537   0.000000
     30          8.487134   0.000000
     31          9.157146   0.000000
     32          9.189906   0.000000
     33         10.071206   0.000000
     34         10.542465   0.000000
     35         10.768256   0.000000
     36         11.033711   0.000000
     37         11.796368   0.000000
     38         11.820285   0.000000
     39         12.208971   0.000000
     40         12.978679   0.000000
     41         13.476877   0.000000
     42         13.826882   0.000000
     43         14.299196   0.000000
     44         14.454159   0.000000
     45         15.061088   0.000000
     46         15.202161   0.000000
     47         16.066766   0.000000
     48         16.372159   0.000000
 
  0.5000000E-01  0.2500000E+00  0.0000000E+00  0.3174603E-02
      1        -12.603915   1.000000
      2        -11.475082   1.000000
      3         -8.552988   1.000000
      4         -8.291638   1.000000
      5         -5.908429   1.000000
      6         -5.603156   1.000000
      7         -4.919472   1.000000
      8         -4.529018   1.000000
      9         -4.411484   1.000000
     10         -4.109297   1.000000
     11         -3.389990   1.000000
     12         -1.205492   1.000000
     13         -1.046637   1.000000
     14         -0.988439   1.000000
     15         -0.170416   1.000000
     16          0.244998   1.000000
     17          0.372768   1.000000
     18          0.622256   1.000000
     19          0.813045   1.000000
     20          1.004913   1.000000
     21          1.019270   1.000000
     22          2.373501   0.000000
     23          4.973635   0.000000
     24          5.191888   0.000000
     25          6.402061   0.000000
     26          6.631186   0.000000
     27          7.312414   0.000000
     28          8.020234   0.000000
     29          8.761210   0.000000
     30          9.107288   0.000000
     31          9.532558   0.000000
     32          9.631572   0.000000
     33          9.713807   0.000000
     34         10.798666   0.000000
     35         11.329228   0.000000
     36         12.022732   0.000000
     37         12.069128   0.000000
     38         12.357965   0.000000
     39         12.481089   0.000000
     40         12.503120   0.000000
     41         12.624757   0.000000
     42         13.062113   0.000000
     43         13.873094   0.000000
     44         13.941956   0.000000
     45         14.492704   0.000000
     46         15.168968   0.000000
     47         15.467242   0.000000
     48         15.947454   0.000000
 
  0.1500000E+00  0.2500000E+00  0.0000000E+00  0.3174603E-02
      1        -12.560647   1.000000
      2        -11.547990   1.000000
      3         -8.531209   1.000000
      4         -8.282198   1.000000
      5         -5.830022   1.000000
      6         -5.568451   1.000000
      7         -5.258333   1.000000
      8         -4.665611   1.000000