       N       E                     dE             d eps       ncg     rms          rms(c)
DAV:   1     0.175836725710E+03    0.17584E+03   -0.29164E+04 16800   0.147E+03
DAV:   2    -0.868389642086E+02   -0.26268E+03   -0.24171E+03 21888   0.222E+02
DAV:   3    -0.975888756089E+02   -0.10750E+02   -0.10636E+02 25176   0.396E+01
DAV:   4    -0.976586814686E+02   -0.69806E-01   -0.69801E-01 18336   0.362E+00
DAV:   5    -0.976593604801E+02   -0.67901E-03   -0.67899E-03 25200   0.341E-01    0.123E+01
DAV:   6    -0.922429732637E+02    0.54164E+01   -0.39489E+00 24264   0.659E+00    0.680E+00
DAV:   7    -0.905913618914E+02    0.16516E+01   -0.32227E+00 25200   0.587E+00    0.171E+00
DAV:   8    -0.906038189440E+02   -0.12457E-01   -0.23566E-01 18408   0.169E+00    0.705E-01
DAV:   9    -0.906179905124E+02   -0.14172E-01   -0.16969E-02 23520   0.442E-01    0.198E-01
DAV:  10    -0.906220448990E+02   -0.40544E-02   -0.21049E-03 18960   0.163E-01    0.611E-02
DAV:  11    -0.906231171115E+02   -0.10722E-02   -0.63178E-04 21984   0.893E-02    0.321E-02
DAV:  12    -0.906232328773E+02   -0.11577E-03   -0.93559E-05 20688   0.390E-02    0.429E-03
DAV:  13    -0.906232377695E+02   -0.48922E-05   -0.41792E-06 23472   0.955E-03    0.182E-03
DAV:  14    -0.906232384648E+02   -0.69527E-06   -0.29693E-07 20664   0.257E-03
   1 F= -.90623238E+02 E0= -.90621632E+02  d E =-.321359E-02
