       N       E                     dE             d eps       ncg     rms          rms(c)
DAV:   1    -0.274901159820E+01   -0.27490E+01   -0.11782E+04 16800   0.419E+02
DAV:   2    -0.941769597428E+02   -0.91428E+02   -0.86840E+02 24408   0.104E+02
DAV:   3    -0.966407494193E+02   -0.24638E+01   -0.24582E+01 23328   0.162E+01
DAV:   4    -0.966550512244E+02   -0.14302E-01   -0.14301E-01 23040   0.129E+00
DAV:   5    -0.966552251536E+02   -0.17393E-03   -0.17393E-03 22536   0.142E-01    0.137E+01
DAV:   6    -0.913792522078E+02    0.52760E+01   -0.38197E+00 24216   0.637E+00    0.765E+00
DAV:   7    -0.897553447048E+02    0.16239E+01   -0.31810E+00 25176   0.573E+00    0.185E+00
DAV:   8    -0.897669172027E+02   -0.11572E-01   -0.22966E-01 18672   0.160E+00    0.759E-01
DAV:   9    -0.897805844201E+02   -0.13667E-01   -0.16543E-02 23256   0.419E-01    0.200E-01
DAV:  10    -0.897842756188E+02   -0.36912E-02   -0.19705E-03 19152   0.151E-01    0.612E-02
DAV:  11    -0.897853407801E+02   -0.10652E-02   -0.58523E-04 21888   0.762E-02    0.335E-02
DAV:  12    -0.897854426963E+02   -0.10192E-03   -0.75181E-05 21528   0.285E-02    0.443E-03
DAV:  13    -0.897854461289E+02   -0.34327E-05   -0.31243E-06 23448   0.634E-03    0.207E-03
DAV:  14    -0.897854465872E+02   -0.45826E-06   -0.20684E-07 19800   0.155E-03
   1 F= -.89785447E+02 E0= -.89783828E+02  d E =-.323686E-02
