   1   1   0   0
  0.3390210E+04  0.1502250E-08  0.1251875E-08  0.1802700E-08  0.5000000E-15
  1.000000000000000E-004
  CAR 
 Convergence                             
      2.48773670     -9.97661782  301     -3.60735069      1.00000000
     -9.977  0.0000E+00  0.0000E+00
     -9.935  0.0000E+00  0.0000E+00
     -9.894  0.0000E+00  0.0000E+00
     -9.852  0.0000E+00  0.0000E+00
     -9.810  0.0000E+00  0.0000E+00
     -9.769  0.0000E+00  0.0000E+00
     -9.727  0.0000E+00  0.0000E+00
     -9.686  0.1496E-12  0.6217E-14
     -9.644  0.8436E-09  0.3506E-10
     -9.603  0.1222E-05  0.5081E-07
     -9.561  0.4624E-03  0.1926E-04
     -9.520  0.4641E-01  0.1947E-02
     -9.478  0.1264E+01  0.5448E-01
     -9.436  0.9629E+01  0.4546E+00
     -9.395  0.2109E+02  0.1331E+01
     -9.353  0.1348E+02  0.1891E+01
     -9.312  0.2493E+01  0.1995E+01
     -9.270  0.1299E+00  0.2000E+01
     -9.229  0.1852E-02  0.2000E+01
     -9.187  0.7044E-05  0.2000E+01
     -9.146  0.7022E-08  0.2000E+01
     -9.104  0.1817E-11  0.2000E+01
     -9.063  0.0000E+00  0.2000E+01
     -9.021  0.0000E+00  0.2000E+01
     -8.979  0.0000E+00  0.2000E+01
     -8.938  0.0000E+00  0.2000E+01
     -8.896  0.0000E+00  0.2000E+01
     -8.855  0.0000E+00  0.2000E+01
     -8.813  0.0000E+00  0.2000E+01
     -8.772  0.0000E+00  0.2000E+01
     -8.730  0.0000E+00  0.2000E+01
     -8.689  0.0000E+00  0.2000E+01
     -8.647  0.0000E+00  0.2000E+01
     -8.606  0.0000E+00  0.2000E+01
     -8.564  0.0000E+00  0.2000E+01
     -8.522  0.0000E+00  0.2000E+01
     -8.481  0.0000E+00  0.2000E+01
     -8.439  0.0000E+00  0.2000E+01
     -8.398  0.0000E+00  0.2000E+01
     -8.356  0.0000E+00  0.2000E+01
     -8.315  0.0000E+00  0.2000E+01
     -8.273  0.0000E+00  0.2000E+01
     -8.232  0.0000E+00  0.2000E+01
     -8.190  0.0000E+00  0.2000E+01
     -8.149  0.0000E+00  0.2000E+01
     -8.107  0.0000E+00  0.2000E+01
     -8.065  0.0000E+00  0.2000E+01
     -8.024  0.0000E+00  0.2000E+01
     -7.982  0.0000E+00  0.2000E+01
     -7.941  0.0000E+00  0.2000E+01
     -7.899  0.0000E+00  0.2000E+01
     -7.858  0.0000E+00  0.2000E+01
     -7.816  0.0000E+00  0.2000E+01
     -7.775  0.0000E+00  0.2000E+01
     -7.733  0.0000E+00  0.2000E+01
     -7.691  0.0000E+00  0.2000E+01
     -7.650  0.0000E+00  0.2000E+01
     -7.608  0.0000E+00  0.2000E+01
     -7.567  0.0000E+00  0.2000E+01
     -7.525  0.0000E+00  0.2000E+01
     -7.484  0.0000E+00  0.2000E+01
     -7.442  0.0000E+00  0.2000E+01
     -7.401  0.0000E+00  0.2000E+01
     -7.359  0.0000E+00  0.2000E+01
     -7.318  0.0000E+00  0.2000E+01
     -7.276  0.0000E+00  0.2000E+01
     -7.234  0.0000E+00  0.2000E+01
     -7.193  0.0000E+00  0.2000E+01
     -7.151  0.0000E+00  0.2000E+01
     -7.110  0.0000E+00  0.2000E+01
     -7.068  0.0000E+00  0.2000E+01
     -7.027  0.0000E+00  0.2000E+01
     -6.985  0.0000E+00  0.2000E+01
     -6.944  0.0000E+00  0.2000E+01
     -6.902  0.0000E+00  0.2000E+01
     -6.861  0.0000E+00  0.2000E+01
     -6.819  0.0000E+00  0.2000E+01
     -6.777  0.0000E+00  0.2000E+01
     -6.736  0.0000E+00  0.2000E+01
     -6.694  0.0000E+00  0.2000E+01
     -6.653  0.0000E+00  0.2000E+01
     -6.611  0.0000E+00  0.2000E+01
     -6.570  0.0000E+00  0.2000E+01
     -6.528  0.0000E+00  0.2000E+01
     -6.487  0.0000E+00  0.2000E+01
     -6.445  0.0000E+00  0.2000E+01
     -6.404  0.0000E+00  0.2000E+01
     -6.362  0.0000E+00  0.2000E+01
     -6.320  0.0000E+00  0.2000E+01
     -6.279  0.0000E+00  0.2000E+01
     -6.237  0.0000E+00  0.2000E+01
     -6.196  0.0000E+00  0.2000E+01
     -6.154  0.0000E+00  0.2000E+01
     -6.113  0.0000E+00  0.2000E+01
     -6.071  0.0000E+00  0.2000E+01
     -6.030  0.0000E+00  0.2000E+01
     -5.988  0.0000E+00  0.2000E+01
     -5.946  0.0000E+00  0.2000E+01
     -5.905  0.0000E+00  0.2000E+01
     -5.863  0.0000E+00  0.2000E+01
     -5.822  0.0000E+00  0.2000E+01
     -5.780  0.0000E+00  0.2000E+01
     -5.739  0.0000E+00  0.2000E+01
     -5.697  0.0000E+00  0.2000E+01
     -5.656  0.0000E+00  0.2000E+01
     -5.614  0.0000E+00  0.2000E+01
     -5.573  0.0000E+00  0.2000E+01
     -5.531  0.0000E+00  0.2000E+01
     -5.489  0.0000E+00  0.2000E+01
     -5.448  0.0000E+00  0.2000E+01
     -5.406  0.0000E+00  0.2000E+01
     -5.365  0.0000E+00  0.2000E+01
     -5.323  0.0000E+00  0.2000E+01
     -5.282  0.0000E+00  0.2000E+01
     -5.240  0.0000E+00  0.2000E+01
     -5.199  0.0000E+00  0.2000E+01
     -5.157  0.0000E+00  0.2000E+01
     -5.116  0.0000E+00  0.2000E+01
     -5.074  0.0000E+00  0.2000E+01
     -5.032  0.0000E+00  0.2000E+01
     -4.991  0.0000E+00  0.2000E+01
     -4.949  0.0000E+00  0.2000E+01
     -4.908  0.0000E+00  0.2000E+01
     -4.866  0.0000E+00  0.2000E+01
     -4.825  0.0000E+00  0.2000E+01
     -4.783  0.0000E+00  0.2000E+01
     -4.742  0.0000E+00  0.2000E+01
     -4.700  0.0000E+00  0.2000E+01
     -4.658  0.0000E+00  0.2000E+01
     -4.617  0.0000E+00  0.2000E+01
     -4.575  0.0000E+00  0.2000E+01
     -4.534  0.0000E+00  0.2000E+01
     -4.492  0.0000E+00  0.2000E+01
     -4.451  0.0000E+00  0.2000E+01
     -4.409  0.0000E+00  0.2000E+01
     -4.368  0.0000E+00  0.2000E+01
     -4.326  0.0000E+00  0.2000E+01
     -4.285  0.0000E+00  0.2000E+01
     -4.243  0.0000E+00  0.2000E+01
     -4.201  0.0000E+00  0.2000E+01
     -4.160  0.0000E+00  0.2000E+01
     -4.118  0.0000E+00  0.2000E+01
     -4.077  0.0000E+00  0.2000E+01
     -4.035  0.0000E+00  0.2000E+01
     -3.994  0.0000E+00  0.2000E+01
     -3.952  0.0000E+00  0.2000E+01
     -3.911  0.0000E+00  0.2000E+01
     -3.869  0.8016E-14  0.2000E+01
     -3.828  0.4502E-10  0.2000E+01
     -3.786  0.1259E-06  0.2000E+01
     -3.744  0.9134E-04  0.2000E+01
     -3.703  0.1744E-01  0.2001E+01
     -3.661  0.8930E+00  0.2038E+01
     -3.620  0.1259E+02  0.2561E+01
     -3.578  0.5042E+02  0.4656E+01
     -3.537  0.5864E+02  0.7092E+01
     -3.495  0.1987E+02  0.7918E+01
     -3.454  0.1925E+01  0.7998E+01
     -3.412  0.5175E-01  0.8000E+01
     -3.371  0.3752E-03  0.8000E+01
     -3.329  0.7187E-06  0.8000E+01
     -3.287  0.3584E-09  0.8000E+01
     -3.246  0.4810E-13  0.8000E+01
     -3.204  0.0000E+00  0.8000E+01
     -3.163  0.0000E+00  0.8000E+01
     -3.121  0.0000E+00  0.8000E+01
     -3.080  0.0000E+00  0.8000E+01
     -3.038  0.0000E+00  0.8000E+01
     -2.997  0.0000E+00  0.8000E+01
     -2.955  0.0000E+00  0.8000E+01
     -2.913  0.0000E+00  0.8000E+01
     -2.872  0.0000E+00  0.8000E+01
     -2.830  0.0000E+00  0.8000E+01
     -2.789  0.0000E+00  0.8000E+01
     -2.747  0.0000E+00  0.8000E+01
     -2.706  0.0000E+00  0.8000E+01
     -2.664  0.0000E+00  0.8000E+01
     -2.623  0.0000E+00  0.8000E+01
     -2.581  0.0000E+00  0.8000E+01
     -2.540  0.0000E+00  0.8000E+01
     -2.498  0.0000E+00  0.8000E+01
     -2.456  0.0000E+00  0.8000E+01
     -2.415  0.0000E+00  0.8000E+01
     -2.373  0.0000E+00  0.8000E+01
     -2.332  0.0000E+00  0.8000E+01
     -2.290  0.0000E+00  0.8000E+01
     -2.249  0.0000E+00  0.8000E+01
     -2.207  0.0000E+00  0.8000E+01
     -2.166  0.0000E+00  0.8000E+01
     -2.124  0.0000E+00  0.8000E+01
     -2.083  0.0000E+00  0.8000E+01
     -2.041  0.0000E+00  0.8000E+01
     -1.999  0.0000E+00  0.8000E+01
     -1.958  0.0000E+00  0.8000E+01
     -1.916  0.0000E+00  0.8000E+01
     -1.875  0.0000E+00  0.8000E+01
     -1.833  0.0000E+00  0.8000E+01
     -1.792  0.0000E+00  0.8000E+01
     -1.750  0.0000E+00  0.8000E+01
     -1.709  0.0000E+00  0.8000E+01
     -1.667  0.0000E+00  0.8000E+01
     -1.626  0.0000E+00  0.8000E+01
     -1.584  0.0000E+00  0.8000E+01
     -1.542  0.0000E+00  0.8000E+01
     -1.501  0.0000E+00  0.8000E+01
     -1.459  0.0000E+00  0.8000E+01
     -1.418  0.0000E+00  0.8000E+01
     -1.376  0.0000E+00  0.8000E+01
     -1.335  0.0000E+00  0.8000E+01
     -1.293  0.0000E+00  0.8000E+01
     -1.252  0.0000E+00  0.8000E+01
     -1.210  0.0000E+00  0.8000E+01
     -1.168  0.0000E+00  0.8000E+01
     -1.127  0.0000E+00  0.8000E+01
     -1.085  0.0000E+00  0.8000E+01
     -1.044  0.0000E+00  0.8000E+01
     -1.002  0.0000E+00  0.8000E+01
     -0.961  0.0000E+00  0.8000E+01
     -0.919  0.0000E+00  0.8000E+01
     -0.878  0.0000E+00  0.8000E+01
     -0.836  0.0000E+00  0.8000E+01
     -0.795  0.0000E+00  0.8000E+01
     -0.753  0.0000E+00  0.8000E+01
     -0.711  0.0000E+00  0.8000E+01
     -0.670  0.0000E+00  0.8000E+01
     -0.628  0.0000E+00  0.8000E+01
     -0.587  0.0000E+00  0.8000E+01
     -0.545  0.2121E-15  0.8000E+01
     -0.504  0.1753E-11  0.8000E+01
     -0.462  0.3980E-08  0.8000E+01
     -0.421  0.2483E-05  0.8000E+01
     -0.379  0.4410E-03  0.8000E+01
     -0.338  0.2355E-01  0.8001E+01
     -0.296  0.4094E+00  0.8018E+01
     -0.254  0.2606E+01  0.8126E+01
     -0.213  0.7183E+01  0.8425E+01
     -0.171  0.1059E+02  0.8865E+01
     -0.130  0.1060E+02  0.9305E+01
     -0.088  0.8804E+01  0.9671E+01
     -0.047  0.5554E+01  0.9902E+01
     -0.005  0.2035E+01  0.9986E+01
      0.036  0.6447E+00  0.1001E+02
      0.078  0.1814E+01  0.1009E+02
      0.120  0.5268E+01  0.1031E+02
      0.161  0.9904E+01  0.1072E+02
      0.203  0.1374E+02  0.1129E+02
      0.244  0.1559E+02  0.1194E+02
      0.286  0.1583E+02  0.1260E+02
      0.327  0.1594E+02  0.1326E+02
      0.369  0.1623E+02  0.1393E+02
      0.410  0.1652E+02  0.1462E+02
      0.452  0.1750E+02  0.1535E+02
      0.493  0.1851E+02  0.1611E+02
      0.535  0.1854E+02  0.1688E+02
      0.577  0.1896E+02  0.1767E+02
      0.618  0.1989E+02  0.1850E+02
      0.660  0.2039E+02  0.1935E+02
      0.701  0.2099E+02  0.2022E+02
      0.743  0.2238E+02  0.2115E+02
      0.784  0.2254E+02  0.2208E+02
      0.826  0.2191E+02  0.2299E+02
      0.867  0.2327E+02  0.2396E+02
      0.909  0.2458E+02  0.2498E+02
      0.950  0.2432E+02  0.2599E+02
      0.992  0.2486E+02  0.2703E+02
      1.034  0.2595E+02  0.2810E+02
      1.075  0.2609E+02  0.2919E+02
      1.117  0.2613E+02  0.3027E+02
      1.158  0.2685E+02  0.3139E+02
      1.200  0.2777E+02  0.3254E+02
      1.241  0.2744E+02  0.3368E+02
      1.283  0.2754E+02  0.3483E+02
      1.324  0.2862E+02  0.3602E+02
      1.366  0.2872E+02  0.3721E+02
      1.407  0.2840E+02  0.3839E+02
      1.449  0.2937E+02  0.3961E+02
      1.491  0.3096E+02  0.4090E+02
      1.532  0.3017E+02  0.4215E+02
      1.574  0.2965E+02  0.4338E+02
      1.615  0.3018E+02  0.4464E+02
      1.657  0.2788E+02  0.4579E+02
      1.698  0.2143E+02  0.4669E+02
      1.740  0.1422E+02  0.4728E+02
      1.781  0.8436E+01  0.4763E+02
      1.823  0.4853E+01  0.4783E+02
      1.865  0.2601E+01  0.4794E+02
      1.906  0.1102E+01  0.4798E+02
      1.948  0.3494E+00  0.4800E+02
      1.989  0.7355E-01  0.4800E+02
      2.031  0.7112E-02  0.4800E+02
      2.072  0.2278E-03  0.4800E+02
      2.114  0.2089E-05  0.4800E+02
      2.155  0.5184E-08  0.4800E+02
      2.197  0.3398E-11  0.4800E+02
      2.238  0.5768E-15  0.4800E+02
      2.280  0.0000E+00  0.4800E+02
      2.322  0.0000E+00  0.4800E+02
      2.363  0.0000E+00  0.4800E+02
      2.405  0.0000E+00  0.4800E+02
      2.446  0.0000E+00  0.4800E+02
      2.488  0.0000E+00  0.4800E+02
