<?xml version="1.0" encoding="ISO-8859-1"?>
<modeling>
 <generator>
  <i name="program" type="string">vasp </i>
  <i name="version" type="string">6.4.3  </i>
  <i name="subversion" type="string">19Mar24 (build May 31 2024 16:31:43) complex                          parallel </i>
  <i name="platform" type="string">LinuxIFC </i>
  <i name="date" type="string">2024 10 31 </i>
  <i name="time" type="string">00:22:31 </i>
 </generator>
 <incar>
  <i type="string" name="SYSTEM">Kpoints</i>
  <i type="int" name="ISTART">     0</i>
  <i type="string" name="PREC">Accurate</i>
  <i type="string" name="ALGO">Normal</i>
  <i type="int" name="ISPIN">     1</i>
  <i type="int" name="ICHARG">     2</i>
  <i type="int" name="NELM">   100</i>
  <i type="int" name="IBRION">    -1</i>
  <i name="EDIFF">      0.00000100</i>
  <i name="EDIFFG">     -0.00100000</i>
  <i type="int" name="NSW">     0</i>
  <i type="int" name="ISIF">     2</i>
  <i name="ENCUT">    480.00000000</i>
  <i name="POTIM">      0.50000000</i>
  <i type="int" name="ISMEAR">     0</i>
  <i name="SIGMA">      0.05000000</i>
  <i type="logical" name="LWAVE"> F  </i>
  <i type="logical" name="LCHARG"> F  </i>
  <i type="string" name="GGA">PE</i>
 </incar>
 <primitive_cell>
  <structure name="primitive_cell" >
   <crystal>
    <varray name="basis" >
     <v>       5.69700000       0.00000000       0.00000000 </v>
     <v>       0.00000000       4.04790000       0.00000000 </v>
     <v>       0.00000000       0.00000000       6.20420000 </v>
    </varray>
    <i name="volume">    143.07435078 </i>
    <varray name="rec_basis" >
     <v>       0.17553098       0.00000000       0.00000000 </v>
     <v>       0.00000000       0.24704168       0.00000000 </v>
     <v>       0.00000000       0.00000000       0.16118114 </v>
    </varray>
   </crystal>
   <varray name="positions" >
    <v>       0.52123000       0.50000000       0.63796000 </v>
    <v>       0.47877000       0.50000000       0.36204000 </v>
    <v>       0.97877000       0.50000000       0.63796000 </v>
    <v>       0.02123000       0.50000000       0.36204000 </v>
    <v>       0.60090000       0.50000000       0.89991000 </v>
    <v>       0.39910000       0.50000000       0.10009000 </v>
    <v>       0.89910000       0.50000000       0.89991000 </v>
    <v>       0.10090000       0.50000000       0.10009000 </v>
    <v>       0.75000000       0.79171000       0.72973000 </v>
    <v>       0.25000000       0.20829000       0.27027000 </v>
    <v>       0.75000000       0.20829000       0.72973000 </v>
    <v>       0.25000000       0.79171000       0.27027000 </v>
    <v>       0.25000000       0.50000000       0.52367000 </v>
    <v>       0.75000000       0.50000000       0.47633000 </v>
   </varray>
  </structure>
  <varray name="primitive_index" >
   <v type="int" >        1 </v>
   <v type="int" >        2 </v>
   <v type="int" >        3 </v>
   <v type="int" >        4 </v>
   <v type="int" >        5 </v>
   <v type="int" >        6 </v>
   <v type="int" >        7 </v>
   <v type="int" >        8 </v>
   <v type="int" >        9 </v>
   <v type="int" >       10 </v>
   <v type="int" >       11 </v>
   <v type="int" >       12 </v>
   <v type="int" >       13 </v>
   <v type="int" >       14 </v>
  </varray>
 </primitive_cell>
 <kpoints>
  <generation param="Monkhorst-Pack">
   <v type="int" name="divisions">       7       10        6 </v>
   <v name="usershift">      0.00000000       0.00000000       0.00000000 </v>
   <v name="genvec1">      0.14285714       0.00000000       0.00000000 </v>
   <v name="genvec2">      0.00000000       0.10000000       0.00000000 </v>
   <v name="genvec3">      0.00000000       0.00000000       0.16666667 </v>
   <v name="shift">      0.00000000       0.50000000       0.50000000 </v>
  </generation>
  <varray name="kpointlist" >
   <v>       0.00000000       0.05000000       0.08333333 </v>
   <v>       0.14285714       0.05000000       0.08333333 </v>
   <v>       0.28571429       0.05000000       0.08333333 </v>
   <v>       0.42857143       0.05000000       0.08333333 </v>
   <v>       0.00000000       0.15000000       0.08333333 </v>
   <v>       0.14285714       0.15000000       0.08333333 </v>
   <v>       0.28571429       0.15000000       0.08333333 </v>
   <v>       0.42857143       0.15000000       0.08333333 </v>
   <v>       0.00000000       0.25000000       0.08333333 </v>
   <v>       0.14285714       0.25000000       0.08333333 </v>
   <v>       0.28571429       0.25000000       0.08333333 </v>
   <v>       0.42857143       0.25000000       0.08333333 </v>
   <v>       0.00000000       0.35000000       0.08333333 </v>
   <v>       0.14285714       0.35000000       0.08333333 </v>
   <v>       0.28571429       0.35000000       0.08333333 </v>
   <v>       0.42857143       0.35000000       0.08333333 </v>
   <v>       0.00000000       0.45000000       0.08333333 </v>
   <v>       0.14285714       0.45000000       0.08333333 </v>
   <v>       0.28571429       0.45000000       0.08333333 </v>
   <v>       0.42857143       0.45000000       0.08333333 </v>
   <v>       0.00000000       0.05000000       0.25000000 </v>
   <v>       0.14285714       0.05000000       0.25000000 </v>
   <v>       0.28571429       0.05000000       0.25000000 </v>
   <v>       0.42857143       0.05000000       0.25000000 </v>
   <v>       0.00000000       0.15000000       0.25000000 </v>
   <v>       0.14285714       0.15000000       0.25000000 </v>
   <v>       0.28571429       0.15000000       0.25000000 </v>
   <v>       0.42857143       0.15000000       0.25000000 </v>
   <v>       0.00000000       0.25000000       0.25000000 </v>
   <v>       0.14285714       0.25000000       0.25000000 </v>
   <v>       0.28571429       0.25000000       0.25000000 </v>
   <v>       0.42857143       0.25000000       0.25000000 </v>
   <v>       0.00000000       0.35000000       0.25000000 </v>
   <v>       0.14285714       0.35000000       0.25000000 </v>
   <v>       0.28571429       0.35000000       0.25000000 </v>
   <v>       0.42857143       0.35000000       0.25000000 </v>
   <v>       0.00000000       0.45000000       0.25000000 </v>
   <v>       0.14285714       0.45000000       0.25000000 </v>
   <v>       0.28571429       0.45000000       0.25000000 </v>
   <v>       0.42857143       0.45000000       0.25000000 </v>
   <v>       0.00000000       0.05000000       0.41666667 </v>
   <v>       0.14285714       0.05000000       0.41666667 </v>
   <v>       0.28571429       0.05000000       0.41666667 </v>
   <v>       0.42857143       0.05000000       0.41666667 </v>
   <v>       0.00000000       0.15000000       0.41666667 </v>
   <v>       0.14285714       0.15000000       0.41666667 </v>
   <v>       0.28571429       0.15000000       0.41666667 </v>
   <v>       0.42857143       0.15000000       0.41666667 </v>
   <v>       0.00000000       0.25000000       0.41666667 </v>
   <v>       0.14285714       0.25000000       0.41666667 </v>
   <v>       0.28571429       0.25000000       0.41666667 </v>
   <v>       0.42857143       0.25000000       0.41666667 </v>
   <v>       0.00000000       0.35000000       0.41666667 </v>
   <v>       0.14285714       0.35000000       0.41666667 </v>
   <v>       0.28571429       0.35000000       0.41666667 </v>
   <v>       0.42857143       0.35000000       0.41666667 </v>
   <v>       0.00000000       0.45000000       0.41666667 </v>
   <v>       0.14285714       0.45000000       0.41666667 </v>
   <v>       0.28571429       0.45000000       0.41666667 </v>
   <v>       0.42857143       0.45000000       0.41666667 </v>
  </varray>
  <varray name="weights" >
   <v>       0.00952381 </v>
   <v>       0.01904762 </v>
   <v>       0.01904762 </v>
   <v>       0.01904762 </v>
   <v>       0.00952381 </v>
   <v>       0.01904762 </v>
   <v>       0.01904762 </v>
   <v>       0.01904762 </v>
   <v>       0.00952381 </v>
   <v>       0.01904762 </v>
   <v>       0.01904762 </v>
   <v>       0.01904762 </v>
   <v>       0.00952381 </v>
   <v>       0.01904762 </v>
   <v>       0.01904762 </v>
   <v>       0.01904762 </v>
   <v>       0.00952381 </v>
   <v>       0.01904762 </v>
   <v>       0.01904762 </v>
   <v>       0.01904762 </v>
   <v>       0.00952381 </v>
   <v>       0.01904762 </v>
   <v>       0.01904762 </v>
   <v>       0.01904762 </v>
   <v>       0.00952381 </v>
   <v>       0.01904762 </v>
   <v>       0.01904762 </v>
   <v>       0.01904762 </v>
   <v>       0.00952381 </v>
   <v>       0.01904762 </v>
   <v>       0.01904762 </v>
   <v>       0.01904762 </v>
   <v>       0.00952381 </v>
   <v>       0.01904762 </v>
   <v>       0.01904762 </v>
   <v>       0.01904762 </v>
   <v>       0.00952381 </v>
   <v>       0.01904762 </v>
   <v>       0.01904762 </v>
   <v>       0.01904762 </v>
   <v>       0.00952381 </v>
   <v>       0.01904762 </v>
   <v>       0.01904762 </v>
   <v>       0.01904762 </v>
   <v>       0.00952381 </v>
   <v>       0.01904762 </v>
   <v>       0.01904762 </v>
   <v>       0.01904762 </v>
   <v>       0.00952381 </v>
   <v>       0.01904762 </v>
   <v>       0.01904762 </v>
   <v>       0.01904762 </v>
   <v>       0.00952381 </v>
   <v>       0.01904762 </v>
   <v>       0.01904762 </v>
   <v>       0.01904762 </v>
   <v>       0.00952381 </v>
   <v>       0.01904762 </v>
   <v>       0.01904762 </v>
   <v>       0.01904762 </v>
  </varray>
 </kpoints>
 <parameters>
  <separator name="general" >
   <i type="string" name="SYSTEM">Kpoints</i>
   <i type="logical" name="LCOMPAT"> F  </i>
  </separator>
  <separator name="electronic" >
   <i type="string" name="PREC">accura</i>
   <i name="ENMAX">    480.00000000</i>
   <i name="ENAUG">    535.51400000</i>
   <i name="EDIFF">      0.00000100</i>
   <i type="int" name="IALGO">    38</i>
   <i type="int" name="IWAVPR">    10</i>
   <i type="int" name="NBANDS">    48</i>
   <i type="int" name="NBANDSLOW">    -1</i>
   <i type="int" name="NBANDSHIGH">    -1</i>
   <i name="NELECT">     42.00000000</i>
   <i type="int" name="TURBO">     0</i>
   <i type="int" name="IRESTART">     0</i>
   <i type="int" name="NREBOOT">     0</i>
   <i type="int" name="NMIN">     0</i>
   <i name="EREF">      0.00000000</i>
   <separator name="electronic smearing" >
    <i type="int" name="ISMEAR">     0</i>
    <i name="SIGMA">      0.05000000</i>
    <i name="KSPACING">      0.50000000</i>
    <i type="logical" name="KGAMMA"> T  </i>
    <i type="logical" name="KBLOWUP"> T  </i>
   </separator>
   <separator name="electronic projectors" >
    <i type="logical" name="LREAL"> F  </i>
    <v name="ROPT">      0.00000000</v>
    <i type="int" name="LMAXPAW">  -100</i>
    <i type="int" name="LMAXMIX">     2</i>
    <i type="logical" name="NLSPLINE"> F  </i>
   </separator>
   <separator name="electronic startup" >
    <i type="int" name="ISTART">     0</i>
    <i type="int" name="ICHARG">     2</i>
    <i type="int" name="INIWAV">     1</i>
   </separator>
   <separator name="electronic spin" >
    <i type="int" name="ISPIN">     1</i>
    <i type="logical" name="LNONCOLLINEAR"> F  </i>
    <v name="MAGMOM">      1.00000000      1.00000000      1.00000000      1.00000000      1.00000000      1.00000000      1.00000000      1.00000000      1.00000000      1.00000000      1.00000000      1.00000000      1.00000000      1.00000000</v>
    <i name="NUPDOWN">     -1.00000000</i>
    <i type="logical" name="LSORBIT"> F  </i>
    <v name="SAXIS">      0.00000000      0.00000000      1.00000000</v>
    <i type="logical" name="LSPIRAL"> F  </i>
    <v name="QSPIRAL">      0.00000000      0.00000000      0.00000000</v>
    <i type="logical" name="LZEROZ"> F  </i>
   </separator>
   <separator name="electronic exchange-correlation" >
    <i type="logical" name="LASPH"> F  </i>
   </separator>
   <separator name="electronic convergence" >
    <i type="int" name="NELM">   100</i>
    <i type="int" name="NELMDL">    -5</i>
    <i type="int" name="NELMIN">     2</i>
    <i name="ENINI">    480.00000000</i>
    <separator name="electronic convergence detail" >
     <i type="logical" name="LDIAG"> T  </i>
     <i type="logical" name="LSUBROT"> F  </i>
     <i name="WEIMIN">      0.00000000</i>
     <i name="EBREAK">      0.00000001</i>
     <i name="DEPER">      0.30000000</i>
     <i type="int" name="NRMM">     4</i>
     <i name="TIME">      0.40000000</i>
    </separator>
   </separator>
   <separator name="electronic mixer" >
    <i name="AMIX">      0.40000000</i>
    <i name="BMIX">      1.00000000</i>
    <i name="AMIN">      0.10000000</i>
    <i name="AMIX_MAG">      1.60000000</i>
    <i name="BMIX_MAG">      1.00000000</i>
    <separator name="electronic mixer details" >
     <i type="int" name="IMIX">     4</i>
     <i type="logical" name="MIXFIRST"> F  </i>
     <i type="int" name="MAXMIX">   -45</i>
     <i name="WC">    100.00000000</i>
     <i type="int" name="INIMIX">     1</i>
     <i type="int" name="MIXPRE">     1</i>
     <i type="int" name="MREMOVE">     5</i>
    </separator>
   </separator>
   <separator name="electronic dipolcorrection" >
    <i type="logical" name="LDIPOL"> F  </i>
    <i type="logical" name="LMONO"> F  </i>
    <i type="int" name="IDIPOL">     0</i>
    <i name="EPSILON">      1.00000000</i>
    <v name="DIPOL">   -100.00000000   -100.00000000   -100.00000000</v>
    <i name="EFIELD">      0.00000000</i>
    <i type="logical" name="LVACPOTAV"> F  </i>
   </separator>
  </separator>
  <separator name="grids" >
   <i type="int" name="NGX">    42</i>
   <i type="int" name="NGY">    30</i>
   <i type="int" name="NGZ">    48</i>
   <i type="int" name="NGXF">    84</i>
   <i type="int" name="NGYF">    60</i>
   <i type="int" name="NGZF">    96</i>
   <i type="logical" name="ADDGRID"> F  </i>
  </separator>
  <separator name="ionic" >
   <i type="int" name="NSW">     0</i>
   <i type="int" name="IBRION">    -1</i>
   <i type="int" name="MDALGO">     0</i>
   <i type="int" name="ISIF">     2</i>
   <i name="PSTRESS">      0.00000000</i>
   <i name="EDIFFG">     -0.00100000</i>
   <i type="int" name="NFREE">     0</i>
   <i name="POTIM">      0.50000000</i>
   <i name="SMASS">     -3.00000000</i>
   <i name="SCALEE">      1.00000000</i>
  </separator>
  <separator name="ionic md" >
   <i name="TEBEG">      0.00010000</i>
   <i name="TEEND">      0.00010000</i>
   <i type="int" name="NBLOCK">     1</i>
   <i type="int" name="KBLOCK">     1</i>
   <i type="int" name="NPACO">   256</i>
   <i name="APACO">     10.00000000</i>
  </separator>
  <separator name="symmetry" >
   <i type="int" name="ISYM">     2</i>
   <i name="SYMPREC">      0.00001000</i>
  </separator>
  <separator name="dos" >
   <i type="int" name="LORBIT">     0</i>
   <v name="RWIGS">     -1.00000000</v>
   <i type="int" name="NEDOS">   301</i>
   <i name="EMIN">     10.00000000</i>
   <i name="EMAX">    -10.00000000</i>
   <i name="EFERMI">      0.00000000</i>
  </separator>
  <separator name="writing" >
   <i type="int" name="NWRITE">     2</i>
   <i type="logical" name="LWAVE"> F  </i>
   <i type="logical" name="LDOWNSAMPLE"> F  </i>
   <i type="logical" name="LCHARG"> F  </i>
   <i type="logical" name="LPARD"> F  </i>
   <i type="logical" name="LVTOT"> F  </i>
   <i type="logical" name="LVHAR"> F  </i>
   <i type="logical" name="LELF"> F  </i>
   <i type="logical" name="LOPTICS"> F  </i>
   <v name="STM">      0.00000000      0.00000000      0.00000000      0.00000000      0.00000000      0.00000000      0.00000000</v>
  </separator>
  <separator name="performance" >
   <i type="int" name="NPAR">    24</i>
   <i type="int" name="NSIM">     4</i>
   <i type="int" name="NBLK">    -1</i>
   <i type="logical" name="LPLANE"> T  </i>
   <i type="logical" name="LSCALAPACK"> T  </i>
   <i type="logical" name="LSCAAWARE"> F  </i>
   <i type="logical" name="LSCALU"> F  </i>
   <i type="logical" name="LASYNC"> F  </i>
   <i type="logical" name="LORBITALREAL"> F  </i>
  </separator>
  <separator name="miscellaneous" >
   <i type="int" name="IDIOT">     3</i>
   <i type="int" name="PHON_NSTRUCT">    -1</i>
   <i type="logical" name="LMUSIC"> F  </i>
   <v name="POMASS">     10.81100000</v>
   <v name="DARWINR">      0.00000000</v>
   <v name="DARWINV">      1.00000000</v>
   <i type="logical" name="LCORR"> T  </i>
  </separator>
  <i type="logical" name="GGA_COMPAT"> T  </i>
  <i type="logical" name="LBERRY"> F  </i>
  <i type="int" name="ICORELEVEL">     0</i>
  <i type="logical" name="LDAU"> F  </i>
  <i type="int" name="I_CONSTRAINED_M">     0</i>
  <separator name="electronic exchange-correlation" >
   <i type="string" name="GGA    ">PE</i>
   <i type="string" name="XC_C">1</i>
   <i type="int" name="VOSKOWN">     0</i>
   <i type="logical" name="LHFCALC"> F  </i>
   <i type="string" name="PRECFOCK"></i>
   <i type="logical" name="LSYMGRAD"> F  </i>
   <i type="logical" name="LHFONE"> F  </i>
   <i type="logical" name="LRHFCALC"> F  </i>
   <i type="logical" name="LTHOMAS"> F  </i>
   <i type="logical" name="LMODELHF"> F  </i>
   <i type="logical" name="LFOCKACE"> F  </i>
   <i name="ENCUT4O">     -1.00000000</i>
   <i type="int" name="EXXOEP">     0</i>
   <i type="int" name="FOURORBIT">     0</i>
   <i name="AEXX">      0.00000000</i>
   <i name="HFALPHA">      0.00000000</i>
   <i name="MCALPHA">      0.00000000</i>
   <i name="ALDAX">      1.00000000</i>
   <i name="AGGAX">      1.00000000</i>
   <i name="AMGGAX">      1.00000000</i>
   <i name="ALDAC">      1.00000000</i>
   <i name="AGGAC">      1.00000000</i>
   <i name="AMGGAC">      1.00000000</i>
   <i type="int" name="NKREDX">     1</i>
   <i type="int" name="NKREDY">     1</i>
   <i type="int" name="NKREDZ">     1</i>
   <i type="logical" name="SHIFTRED"> F  </i>
   <i type="logical" name="ODDONLY"> F  </i>
   <i type="logical" name="EVENONLY"> F  </i>
   <i type="int" name="LMAXFOCK">     0</i>
   <i type="int" name="NMAXFOCKAE">     0</i>
   <i type="logical" name="LFOCKAEDFT"> F  </i>
   <i name="HFSCREEN">      0.00000000</i>
   <i name="HFSCREENC">      0.00000000</i>
   <i type="int" name="NBANDSGWLOW">     0</i>
  </separator>
  <separator name="vdW DFT" >
   <i type="logical" name="LUSE_VDW"> F  </i>
   <i type="int" name="IVDW_NL">    -1</i>
   <i type="logical" name="LSPIN_VDW"> F  </i>
   <i name="ZAB_VDW">     -0.84910000</i>
   <i name="GAMMA_VDW">      1.39626340</i>
   <i name="ALPHA_VDW">      0.00000000</i>
   <i name="PARAM1">      0.12340000</i>
   <i name="PARAM2">      1.00000000</i>
   <i name="BPARAM">      6.30000000</i>
   <i name="CPARAM">      0.00930000</i>
  </separator>
  <separator name="model GW" >
   <i type="int" name="MODEL_GW">     0</i>
   <i name="MODEL_EPS0">      6.13175789</i>
   <i name="MODEL_ALPHA">      1.00000000</i>
  </separator>
  <separator name="linear response parameters" >
   <i type="logical" name="LEPSILON"> F  </i>
   <i type="logical" name="LRPA"> F  </i>
   <i type="logical" name="LNABLA"> F  </i>
   <i type="logical" name="LVEL"> F  </i>
   <i name="CSHIFT">      0.10000000</i>
   <i name="OMEGAMAX">     -1.00000000</i>
   <i name="DEG_THRESHOLD">      0.00200000</i>
   <i name="RTIME">     -0.10000000</i>
   <i name="WPLASMAI">      0.00000000</i>
   <v name="DFIELD">      0.00000000      0.00000000      0.00000000</v>
   <v name="WPLASMA">      0.00000000      0.00000000      0.00000000      0.00000000      0.00000000      0.00000000      0.00000000      0.00000000      0.00000000</v>
  </separator>
  <separator name="orbital magnetization" >
   <i type="logical" name="NUCIND"> F  </i>
   <v name="MAGPOS">      0.00000000      0.00000000      0.00000000</v>
   <i type="logical" name="LNICSALL"> T  </i>
   <i type="logical" name="ORBITALMAG"> F  </i>
   <i type="logical" name="LMAGBLOCH"> F  </i>
   <i type="logical" name="LCHIMAG"> F  </i>
   <i type="logical" name="LGAUGE"> T  </i>
   <i type="int" name="MAGATOM">     0</i>
   <v name="MAGDIPOL">      0.00000000      0.00000000      0.00000000</v>
   <v name="AVECCONST">      0.00000000      0.00000000      0.00000000</v>
  </separator>
  <separator name="response functions" >
   <i type="logical" name="LALL_IN_ONE"> F  </i>
   <i type="int" name="IALL_IN_ONE">    -1</i>
   <i type="int" name="NBANDS_WAVE">    -1</i>
   <i type="logical" name="LFINITE_TEMPERATURE"> F  </i>
   <i type="logical" name="LADDER"> F  </i>
   <i type="logical" name="LRPAFORCE"> F  </i>
   <i type="logical" name="LFXC"> F  </i>
   <i type="logical" name="LHARTREE"> T  </i>
   <i type="int" name="IBSE">     0</i>
   <v type="int" name="KPOINT">    -1     0     0     0</v>
   <i type="logical" name="LTCTC"> F  </i>
   <i type="logical" name="LTCTE"> F  </i>
   <i type="logical" name="LTETE"> F  </i>
   <i type="logical" name="LTRIPLET"> F  </i>
   <i type="logical" name="LFXCEPS"> F  </i>
   <i type="logical" name="LFXHEG"> F  </i>
   <i type="int" name="NATURALO">     2</i>
   <i type="logical" name="LHOLEGF"> F  </i>
   <i type="logical" name="L2ORDER"> F  </i>
   <i type="logical" name="LDMP1"> F  </i>
   <i type="logical" name="LMP2LT"> F  </i>
   <i type="logical" name="LSMP2LT"> F  </i>
   <i type="logical" name="LGWLF"> F  </i>
   <i name="ENCUTGW">     -1.60000002</i>
   <i name="ENCUTGWSOFT">     -1.60000002</i>
   <i name="ENCUTLF">     -1.00000000</i>
   <i type="logical" name="ESF_SPLINES"> F  </i>
   <i name="ESF_CONV">      0.01000000</i>
   <i type="int" name="ESF_NINTER">    15</i>
   <i type="int" name="LMAXMP2">    -1</i>
   <i name="SCISSOR">      0.00000000</i>
   <i type="int" name="NOMEGA">     0</i>
   <i type="int" name="NOMEGAR">     0</i>
   <i type="int" name="NBANDSGW">    -1</i>
   <i type="int" name="NBANDSO">    -1</i>
   <i type="int" name="NBANDSV">    -1</i>
   <i type="int" name="NELMGW">     1</i>
   <i type="int" name="NELMHF">     1</i>
   <i type="int" name="DIM">     3</i>
   <i type="int" name="IESPILON">     4</i>
   <i type="int" name="ANTIRES">     0</i>
   <i name="OMEGAMAX">    -30.00000000</i>
   <i name="OMEGAMIN">    -30.00000000</i>
   <i name="OMEGATL">   -200.00000000</i>
   <i type="int" name="OMEGAGRID">     0</i>
   <i name="CSHIFT">     -0.10000000</i>
   <i type="logical" name="LSELFENERGY"> F  </i>
   <i type="logical" name="LSPECTRAL"> F  </i>
   <i type="logical" name="LSPECTRALGW"> F  </i>
   <i type="logical" name="LSINGLES"> F  </i>
   <i type="logical" name="LFERMIGW"> F  </i>
   <i type="logical" name="ODDONLYGW"> F  </i>
   <i type="logical" name="EVENONLYGW"> F  </i>
   <i type="int" name="NKREDLFX">     1</i>
   <i type="int" name="NKREDLFY">     1</i>
   <i type="int" name="NKREDLFZ">     1</i>
   <i type="int" name="MAXMEM">  2800</i>
   <i type="int" name="TELESCOPE">     0</i>
   <i type="int" name="NTAUPAR">    -1</i>
   <i type="int" name="NOMEGAPAR">    -1</i>
   <i name="DAMP_NEWTON">      0.80000001</i>
   <i name="LAMBDA">      1.00000000</i>
  </separator>
  <separator name="External order field" >
   <i name="OFIELD_KAPPA">      0.00000000</i>
   <v name="OFIELD_K">      0.00000000      0.00000000      0.00000000</v>
   <i name="OFIELD_Q6_NEAR">      0.00000000</i>
   <i name="OFIELD_Q6_FAR">      0.00000000</i>
   <i name="OFIELD_A">      0.00000000</i>
  </separator>
  <separator name="optional k-points parameters" >
   <i type="int" name="KPOINTS_OPT_MODE">     1</i>
   <i type="logical" name="LKPOINTS_OPT"> F  </i>
  </separator>
 </parameters>
 <atominfo>
  <atoms>      14 </atoms>
  <types>       1 </types>
  <array name="atoms" >
   <dimension dim="1">ion</dimension>
   <field type="string">element</field>
   <field type="int">atomtype</field>
   <set>
    <rc><c>B </c><c>   1</c></rc>
    <rc><c>B </c><c>   1</c></rc>
    <rc><c>B </c><c>   1</c></rc>
    <rc><c>B </c><c>   1</c></rc>
    <rc><c>B </c><c>   1</c></rc>
    <rc><c>B </c><c>   1</c></rc>
    <rc><c>B </c><c>   1</c></rc>
    <rc><c>B </c><c>   1</c></rc>
    <rc><c>B </c><c>   1</c></rc>
    <rc><c>B </c><c>   1</c></rc>
    <rc><c>B </c><c>   1</c></rc>
    <rc><c>B </c><c>   1</c></rc>
    <rc><c>B </c><c>   1</c></rc>
    <rc><c>B </c><c>   1</c></rc>
   </set>
  </array>
  <array name="atomtypes" >
   <dimension dim="1">type</dimension>
   <field type="int">atomspertype</field>
   <field type="string">element</field>
   <field>mass</field>
   <field>valence</field>
   <field type="string">pseudopotential</field>
   <set>
    <rc><c>  14</c><c>B </c><c>     10.81100000</c><c>      3.00000000</c><c>  PAW_PBE B 06Sep2000                   </c></rc>
   </set>
  </array>
 </atominfo>
 <structure name="initialpos" >
  <crystal>
   <varray name="basis" >
    <v>       5.69700000       0.00000000       0.00000000 </v>
    <v>       0.00000000       4.04790000       0.00000000 </v>
    <v>       0.00000000       0.00000000       6.20420000 </v>
   </varray>
   <i name="volume">    143.07435078 </i>
   <varray name="rec_basis" >
    <v>       0.17553098       0.00000000       0.00000000 </v>
    <v>       0.00000000       0.24704168       0.00000000 </v>
    <v>       0.00000000       0.00000000       0.16118114 </v>
   </varray>
  </crystal>
  <varray name="positions" >
   <v>       0.52123000       0.50000000       0.63796000 </v>
   <v>       0.47877000       0.50000000       0.36204000 </v>
   <v>       0.97877000       0.50000000       0.63796000 </v>
   <v>       0.02123000       0.50000000       0.36204000 </v>
   <v>       0.60090000       0.50000000       0.89991000 </v>
   <v>       0.39910000       0.50000000       0.10009000 </v>
   <v>       0.89910000       0.50000000       0.89991000 </v>
   <v>       0.10090000       0.50000000       0.10009000 </v>
   <v>       0.75000000       0.79171000       0.72973000 </v>
   <v>       0.25000000       0.20829000       0.27027000 </v>
   <v>       0.75000000       0.20829000       0.72973000 </v>
   <v>       0.25000000       0.79171000       0.27027000 </v>
   <v>       0.25000000       0.50000000       0.52367000 </v>
   <v>       0.75000000       0.50000000       0.47633000 </v>
  </varray>
 </structure>
 <calculation>
  <scstep>
   <time name="dav">    1.98    2.06</time>
   <time name="total">    2.01    2.08</time>
   <energy>
    <i name="alphaZ">     94.24357992 </i>
    <i name="ewald">   -795.76658092 </i>
    <i name="hartreedc">   -271.33601302 </i>
    <i name="XCdc">     97.50108136 </i>
    <i name="pawpsdc">    608.99811708 </i>
    <i name="pawaedc">   -597.02363782 </i>
    <i name="eentropy">     -0.00236125 </i>
    <i name="bandstr">    -77.94930481 </i>
    <i name="atom">    996.36613177 </i>
    <i name="e_fr_energy">     55.03101231 </i>
    <i name="e_wo_entrp">     55.03337356 </i>
    <i name="e_0_energy">     55.03219293 </i>
   </energy>
  </scstep>
  <scstep>
   <time name="dav">    2.61    2.63</time>
   <time name="total">    2.61    2.63</time>
   <energy>
    <i name="e_fr_energy">    -92.82695181 </i>
    <i name="e_wo_entrp">    -92.82006070 </i>
    <i name="e_0_energy">    -92.82350625 </i>
   </energy>
  </scstep>
  <scstep>
   <time name="dav">    2.53    2.54</time>
   <time name="total">    2.53    2.54</time>
   <energy>
    <i name="e_fr_energy">    -97.56600869 </i>
    <i name="e_wo_entrp">    -97.55989154 </i>
    <i name="e_0_energy">    -97.56295012 </i>
   </energy>
  </scstep>
  <scstep>
   <time name="dav">    2.31    2.32</time>
   <time name="total">    2.31    2.32</time>
   <energy>
    <i name="e_fr_energy">    -97.59365433 </i>
    <i name="e_wo_entrp">    -97.58755278 </i>
    <i name="e_0_energy">    -97.59060355 </i>
   </energy>
  </scstep>
  <scstep>
   <time name="dav">    2.53    2.55</time>
   <time name="total">    2.58    2.59</time>
   <energy>
    <i name="e_fr_energy">    -97.59397483 </i>
    <i name="e_wo_entrp">    -97.58787339 </i>
    <i name="e_0_energy">    -97.59092411 </i>
   </energy>
  </scstep>
  <scstep>
   <time name="dav">    2.35    2.36</time>
   <time name="total">    2.40    2.42</time>
   <energy>
    <i name="e_fr_energy">    -92.18557772 </i>
    <i name="e_wo_entrp">    -92.17990165 </i>
    <i name="e_0_energy">    -92.18273969 </i>
   </energy>
  </scstep>
  <scstep>
   <time name="dav">    2.28    2.31</time>
   <time name="total">    2.33    2.36</time>
   <energy>
    <i name="e_fr_energy">    -90.55040816 </i>
    <i name="e_wo_entrp">    -90.54598445 </i>
    <i name="e_0_energy">    -90.54819630 </i>
   </energy>
  </scstep>
  <scstep>
   <time name="dav">    1.84    1.85</time>
   <time name="total">    1.88    1.89</time>
   <energy>
    <i name="e_fr_energy">    -90.54486228 </i>
    <i name="e_wo_entrp">    -90.53988811 </i>
    <i name="e_0_energy">    -90.54237519 </i>
   </energy>
  </scstep>
  <scstep>
   <time name="dav">    1.96    1.97</time>
   <time name="total">    2.00    2.02</time>
   <energy>
    <i name="e_fr_energy">    -90.56048936 </i>
    <i name="e_wo_entrp">    -90.55560864 </i>
    <i name="e_0_energy">    -90.55804900 </i>
   </energy>
  </scstep>
  <scstep>
   <time name="dav">    1.76    1.77</time>
   <time name="total">    1.81    1.82</time>
   <energy>
    <i name="e_fr_energy">    -90.56556569 </i>
    <i name="e_wo_entrp">    -90.56060136 </i>
    <i name="e_0_energy">    -90.56308352 </i>
   </energy>
  </scstep>
  <scstep>
   <time name="dav">    1.81    1.82</time>
   <time name="total">    1.86    1.87</time>
   <energy>
    <i name="e_fr_energy">    -90.56731346 </i>
    <i name="e_wo_entrp">    -90.56234764 </i>
    <i name="e_0_energy">    -90.56483055 </i>
   </energy>
  </scstep>
  <scstep>
   <time name="dav">    1.96    1.97</time>
   <time name="total">    2.00    2.01</time>
   <energy>
    <i name="e_fr_energy">    -90.56746921 </i>
    <i name="e_wo_entrp">    -90.56251117 </i>
    <i name="e_0_energy">    -90.56499019 </i>
   </energy>
  </scstep>
  <scstep>
   <time name="dav">    1.88    1.89</time>
   <time name="total">    1.92    1.94</time>
   <energy>
    <i name="e_fr_energy">    -90.56749357 </i>
    <i name="e_wo_entrp">    -90.56253485 </i>
    <i name="e_0_energy">    -90.56501421 </i>
   </energy>
  </scstep>
  <scstep>
   <time name="dav">    1.92    1.93</time>
   <time name="total">    1.93    1.94</time>
   <energy>
    <i name="alphaZ">     94.24357992 </i>
    <i name="ewald">   -795.76658092 </i>
    <i name="hartreedc">   -349.06294634 </i>
    <i name="XCdc">    101.58559396 </i>
    <i name="pawpsdc">   3722.15513260 </i>
    <i name="pawaedc">  -3711.34674176 </i>
    <i name="eentropy">     -0.00495813 </i>
    <i name="bandstr">   -148.73670522 </i>
    <i name="atom">    996.36613177 </i>
    <i name="e_fr_energy">    -90.56749412 </i>
    <i name="e_wo_entrp">    -90.56253599 </i>
    <i name="e_0_energy">    -90.56501506 </i>
   </energy>
  </scstep>
  <structure>
   <crystal>
    <varray name="basis" >
     <v>       5.69700000       0.00000000       0.00000000 </v>
     <v>       0.00000000       4.04790000       0.00000000 </v>
     <v>       0.00000000       0.00000000       6.20420000 </v>
    </varray>
    <i name="volume">    143.07435078 </i>
    <varray name="rec_basis" >
     <v>       0.17553098       0.00000000       0.00000000 </v>
     <v>       0.00000000       0.24704168       0.00000000 </v>
     <v>       0.00000000       0.00000000       0.16118114 </v>
    </varray>
   </crystal>
   <varray name="positions" >
    <v>       0.52123000       0.50000000       0.63796000 </v>
    <v>       0.47877000       0.50000000       0.36204000 </v>
    <v>       0.97877000       0.50000000       0.63796000 </v>
    <v>       0.02123000       0.50000000       0.36204000 </v>
    <v>       0.60090000       0.50000000       0.89991000 </v>
    <v>       0.39910000       0.50000000       0.10009000 </v>
    <v>       0.89910000       0.50000000       0.89991000 </v>
    <v>       0.10090000       0.50000000       0.10009000 </v>
    <v>       0.75000000       0.79171000       0.72973000 </v>
    <v>       0.25000000       0.20829000       0.27027000 </v>
    <v>       0.75000000       0.20829000       0.72973000 </v>
    <v>       0.25000000       0.79171000       0.27027000 </v>
    <v>       0.25000000       0.50000000       0.52367000 </v>
    <v>       0.75000000       0.50000000       0.47633000 </v>
   </varray>
  </structure>
  <varray name="forces" >
   <v>       0.03278150       0.00000000       0.01951196 </v>
   <v>      -0.03278150       0.00000000      -0.01951196 </v>
   <v>      -0.03278150       0.00000000       0.01951196 </v>
   <v>       0.03278150      -0.00000000      -0.01951196 </v>
   <v>      -0.80548355      -0.00000000       0.28538693 </v>
   <v>       0.80548355      -0.00000000      -0.28538693 </v>
   <v>       0.80548355      -0.00000000       0.28538693 </v>
   <v>      -0.80548355      -0.00000000      -0.28538693 </v>
   <v>       0.00000000       0.07343349      -0.07122409 </v>
   <v>      -0.00000000      -0.07343349       0.07122409 </v>
   <v>       0.00000000      -0.07343349      -0.07122409 </v>
   <v>       0.00000000       0.07343349       0.07122409 </v>
   <v>      -0.00000000      -0.00000000      -0.00178422 </v>
   <v>      -0.00000000      -0.00000000       0.00178422 </v>
  </varray>
  <varray name="stress" >
   <v>      11.05311437       0.00000000       0.00000000 </v>
   <v>       0.00000000       4.53108372       0.00000000 </v>
   <v>       0.00000000       0.00000000      -5.86817733 </v>
  </varray>
  <energy>
   <i name="e_fr_energy">    -90.56749412 </i>
   <i name="e_wo_entrp">    -90.56253599 </i>
   <i name="e_0_energy">    -90.56501506 </i>
  </energy>
  <time name="totalsc">   31.40   31.69</time>
  <eigenvalues>
   <array>
    <dimension dim="1">band</dimension>
    <dimension dim="2">kpoint</dimension>
    <dimension dim="3">spin</dimension>
    <field>eigene</field>
    <field>occ</field>
    <set>
     <set comment="spin 1">
      <set comment="kpoint 1">
       <r>  -12.7211    1.0000 </r>
       <r>  -11.5805    1.0000 </r>
       <r>   -8.6588    1.0000 </r>
       <r>   -8.4035    1.0000 </r>
       <r>   -6.1494    1.0000 </r>
       <r>   -5.1767    1.0000 </r>
       <r>   -4.4990    1.0000 </r>
       <r>   -4.3046    1.0000 </r>
       <r>   -4.0778    1.0000 </r>
       <r>   -3.5383    1.0000 </r>
       <r>   -2.7356    1.0000 </r>
       <r>   -2.2258    1.0000 </r>
       <r>   -1.6772    1.0000 </r>
       <r>   -1.0911    1.0000 </r>
       <r>   -0.0652    1.0000 </r>
       <r>   -0.0535    1.0000 </r>
       <r>    0.0093    1.0000 </r>
       <r>    0.2102    1.0000 </r>
       <r>    0.4590    1.0000 </r>
       <r>    1.9818    0.0347 </r>
       <r>    2.0142    0.0032 </r>
       <r>    2.4016    0.0000 </r>
       <r>    5.4749    0.0000 </r>
       <r>    5.7103    0.0000 </r>
       <r>    5.8470    0.0000 </r>
       <r>    5.8986    0.0000 </r>
       <r>    6.9325    0.0000 </r>
       <r>    7.7130    0.0000 </r>
       <r>    7.7674    0.0000 </r>
       <r>    8.5034    0.0000 </r>
       <r>    8.7590    0.0000 </r>
       <r>    9.0674    0.0000 </r>
       <r>    9.0864    0.0000 </r>
       <r>   10.2422    0.0000 </r>
       <r>   11.1814    0.0000 </r>
       <r>   11.3625    0.0000 </r>
       <r>   11.4939    0.0000 </r>
       <r>   11.8480    0.0000 </r>
       <r>   11.8884    0.0000 </r>
       <r>   12.4687    0.0000 </r>
       <r>   12.9032    0.0000 </r>
       <r>   13.2131    0.0000 </r>
       <r>   13.7199    0.0000 </r>
       <r>   15.4268    0.0000 </r>
       <r>   15.5420    0.0000 </r>
       <r>   15.6926    0.0000 </r>
       <r>   16.2166    0.0000 </r>
       <r>   16.3215    0.0000 </r>
      </set>
      <set comment="kpoint 2">
       <r>  -12.6766    1.0000 </r>
       <r>  -11.6541    1.0000 </r>
       <r>   -8.6557    1.0000 </r>
       <r>   -8.3829    1.0000 </r>
       <r>   -6.0998    1.0000 </r>
       <r>   -5.3920    1.0000 </r>
       <r>   -4.7583    1.0000 </r>
       <r>   -4.0762    1.0000 </r>
       <r>   -3.7965    1.0000 </r>
       <r>   -3.1666    1.0000 </r>
       <r>   -2.8018    1.0000 </r>
       <r>   -2.2048    1.0000 </r>
       <r>   -1.7549    1.0000 </r>
       <r>   -1.4056    1.0000 </r>
       <r>   -0.1403    1.0000 </r>
       <r>   -0.0330    1.0000 </r>
       <r>    0.1069    1.0000 </r>
       <r>    0.1812    1.0000 </r>
       <r>    0.3828    1.0000 </r>
       <r>    1.7748    1.0000 </r>
       <r>    2.0778    0.0000 </r>
       <r>    2.2438    0.0000 </r>
       <r>    5.5026    0.0000 </r>
       <r>    5.7832    0.0000 </r>
       <r>    5.8771    0.0000 </r>
       <r>    6.2611    0.0000 </r>
       <r>    6.8259    0.0000 </r>
       <r>    7.2363    0.0000 </r>
       <r>    8.0956    0.0000 </r>
       <r>    8.6602    0.0000 </r>
       <r>    8.9219    0.0000 </r>
       <r>    9.2104    0.0000 </r>
       <r>    9.4054    0.0000 </r>
       <r>   10.3080    0.0000 </r>
       <r>   10.9050    0.0000 </r>
       <r>   11.0114    0.0000 </r>
       <r>   11.2431    0.0000 </r>
       <r>   11.7288    0.0000 </r>
       <r>   12.0842    0.0000 </r>
       <r>   12.5622    0.0000 </r>
       <r>   13.2496    0.0000 </r>
       <r>   13.2750    0.0000 </r>
       <r>   13.8482    0.0000 </r>
       <r>   14.8002    0.0000 </r>
       <r>   15.5952    0.0000 </r>
       <r>   15.8060    0.0000 </r>
       <r>   16.0960    0.0000 </r>
       <r>   16.4806    0.0000 </r>
      </set>
      <set comment="kpoint 3">
       <r>  -12.5471    1.0000 </r>
       <r>  -11.8473    1.0000 </r>
       <r>   -8.6132    1.0000 </r>
       <r>   -8.3678    1.0000 </r>
       <r>   -6.1265    1.0000 </r>
       <r>   -5.6979    1.0000 </r>
       <r>   -4.6866    1.0000 </r>
       <r>   -3.8928    1.0000 </r>
       <r>   -3.1160    1.0000 </r>
       <r>   -3.0155    1.0000 </r>
       <r>   -2.5207    1.0000 </r>
       <r>   -2.1843    1.0000 </r>
       <r>   -2.0666    1.0000 </r>
       <r>   -1.9108    1.0000 </r>
       <r>   -0.3836    1.0000 </r>
       <r>   -0.1072    1.0000 </r>
       <r>    0.0865    1.0000 </r>
       <r>    0.2988    1.0000 </r>
       <r>    0.3498    1.0000 </r>
       <r>    1.5666    1.0000 </r>
       <r>    1.7965    0.9997 </r>
       <r>    1.9727    0.0597 </r>
       <r>    5.5772    0.0000 </r>
       <r>    5.9291    0.0000 </r>
       <r>    6.3372    0.0000 </r>
       <r>    6.5856    0.0000 </r>
       <r>    6.7990    0.0000 </r>
       <r>    7.0123    0.0000 </r>
       <r>    8.3141    0.0000 </r>
       <r>    8.8412    0.0000 </r>
       <r>    8.9610    0.0000 </r>
       <r>    9.5728    0.0000 </r>
       <r>    9.9092    0.0000 </r>
       <r>   10.1613    0.0000 </r>
       <r>   10.3434    0.0000 </r>
       <r>   10.7824    0.0000 </r>
       <r>   11.3071    0.0000 </r>
       <r>   11.9478    0.0000 </r>
       <r>   12.3170    0.0000 </r>
       <r>   12.4758    0.0000 </r>
       <r>   12.9630    0.0000 </r>
       <r>   13.1635    0.0000 </r>
       <r>   14.5242    0.0000 </r>
       <r>   14.9365    0.0000 </r>
       <r>   15.2356    0.0000 </r>
       <r>   15.5604    0.0000 </r>
       <r>   15.8668    0.0000 </r>
       <r>   16.0890    0.0000 </r>
      </set>
      <set comment="kpoint 4">
       <r>  -12.3458    1.0000 </r>
       <r>  -12.0981    1.0000 </r>
       <r>   -8.5175    1.0000 </r>
       <r>   -8.4153    1.0000 </r>
       <r>   -6.1533    1.0000 </r>
       <r>   -5.9974    1.0000 </r>
       <r>   -4.0577    1.0000 </r>
       <r>   -3.6293    1.0000 </r>
       <r>   -3.3138    1.0000 </r>
       <r>   -3.2125    1.0000 </r>
       <r>   -2.3540    1.0000 </r>
       <r>   -2.0869    1.0000 </r>
       <r>   -2.0291    1.0000 </r>
       <r>   -1.8816    1.0000 </r>
       <r>   -0.7200    1.0000 </r>
       <r>   -0.4612    1.0000 </r>
       <r>    0.1172    1.0000 </r>
       <r>    0.2790    1.0000 </r>
       <r>    0.7180    1.0000 </r>
       <r>    1.2317    1.0000 </r>
       <r>    1.5577    1.0000 </r>
       <r>    1.7437    1.0000 </r>
       <r>    5.7226    0.0000 </r>
       <r>    5.8995    0.0000 </r>
       <r>    6.5105    0.0000 </r>
       <r>    6.6316    0.0000 </r>
       <r>    7.1909    0.0000 </r>
       <r>    7.7526    0.0000 </r>
       <r>    8.3352    0.0000 </r>
       <r>    8.4873    0.0000 </r>
       <r>    8.6865    0.0000 </r>
       <r>    8.8472    0.0000 </r>
       <r>   10.0742    0.0000 </r>
       <r>   10.5533    0.0000 </r>
       <r>   10.7077    0.0000 </r>
       <r>   11.3442    0.0000 </r>
       <r>   11.5229    0.0000 </r>
       <r>   11.7785    0.0000 </r>
       <r>   12.0841    0.0000 </r>
       <r>   12.4446    0.0000 </r>
       <r>   12.8318    0.0000 </r>
       <r>   13.3745    0.0000 </r>
       <r>   14.3826    0.0000 </r>
       <r>   14.5642    0.0000 </r>
       <r>   15.0937    0.0000 </r>
       <r>   15.1751    0.0000 </r>
       <r>   15.7953    0.0000 </r>
       <r>   16.2267    0.0000 </r>
      </set>
      <set comment="kpoint 5">
       <r>  -12.6756    1.0000 </r>
       <r>  -11.5396    1.0000 </r>
       <r>   -8.6235    1.0000 </r>
       <r>   -8.3599    1.0000 </r>
       <r>   -6.0996    1.0000 </r>
       <r>   -5.1098    1.0000 </r>
       <r>   -4.8832    1.0000 </r>
       <r>   -4.4523    1.0000 </r>
       <r>   -4.1887    1.0000 </r>
       <r>   -3.6722    1.0000 </r>
       <r>   -3.4832    1.0000 </r>
       <r>   -1.3996    1.0000 </r>
       <r>   -1.0828    1.0000 </r>
       <r>   -0.6277    1.0000 </r>
       <r>   -0.4634    1.0000 </r>
       <r>   -0.3347    1.0000 </r>
       <r>    0.0306    1.0000 </r>
       <r>    0.2953    1.0000 </r>
       <r>    0.5769    1.0000 </r>
       <r>    1.5340    1.0000 </r>
       <r>    1.5698    1.0000 </r>
       <r>    2.4691    0.0000 </r>
       <r>    5.4661    0.0000 </r>
       <r>    5.5408    0.0000 </r>
       <r>    5.9274    0.0000 </r>
       <r>    6.0342    0.0000 </r>
       <r>    7.4567    0.0000 </r>
       <r>    7.8343    0.0000 </r>
       <r>    8.2042    0.0000 </r>
       <r>    8.4293    0.0000 </r>
       <r>    8.7885    0.0000 </r>
       <r>    9.2056    0.0000 </r>
       <r>    9.2882    0.0000 </r>
       <r>   10.8663    0.0000 </r>
       <r>   11.2955    0.0000 </r>
       <r>   11.3411    0.0000 </r>
       <r>   11.5457    0.0000 </r>
       <r>   12.0311    0.0000 </r>
       <r>   12.1443    0.0000 </r>
       <r>   12.7084    0.0000 </r>
       <r>   12.9875    0.0000 </r>
       <r>   13.0135    0.0000 </r>
       <r>   13.2608    0.0000 </r>
       <r>   14.9559    0.0000 </r>
       <r>   15.3701    0.0000 </r>
       <r>   15.4668    0.0000 </r>
       <r>   15.5927    0.0000 </r>
       <r>   16.0535    0.0000 </r>
      </set>
      <set comment="kpoint 6">
       <r>  -12.6313    1.0000 </r>
       <r>  -11.6129    1.0000 </r>
       <r>   -8.6192    1.0000 </r>
       <r>   -8.3408    1.0000 </r>
       <r>   -6.0461    1.0000 </r>
       <r>   -5.3349    1.0000 </r>
       <r>   -4.8212    1.0000 </r>
       <r>   -4.7043    1.0000 </r>
       <r>   -3.7488    1.0000 </r>
       <r>   -3.7340    1.0000 </r>
       <r>   -3.1086    1.0000 </r>
       <r>   -1.3999    1.0000 </r>
       <r>   -1.3759    1.0000 </r>
       <r>   -0.7764    1.0000 </r>
       <r>   -0.4982    1.0000 </r>
       <r>   -0.1566    1.0000 </r>
       <r>    0.0588    1.0000 </r>
       <r>    0.2053    1.0000 </r>
       <r>    0.4946    1.0000 </r>
       <r>    1.3400    1.0000 </r>
       <r>    1.6299    1.0000 </r>
       <r>    2.2968    0.0000 </r>
       <r>    5.5072    0.0000 </r>
       <r>    5.8596    0.0000 </r>
       <r>    5.9494    0.0000 </r>
       <r>    6.1618    0.0000 </r>
       <r>    7.3492    0.0000 </r>
       <r>    7.8273    0.0000 </r>
       <r>    8.0058    0.0000 </r>
       <r>    8.6024    0.0000 </r>
       <r>    9.0301    0.0000 </r>
       <r>    9.4060    0.0000 </r>
       <r>    9.5783    0.0000 </r>
       <r>   10.5797    0.0000 </r>
       <r>   10.6909    0.0000 </r>
       <r>   11.1655    0.0000 </r>
       <r>   11.5274    0.0000 </r>
       <r>   12.0454    0.0000 </r>
       <r>   12.3357    0.0000 </r>
       <r>   12.7682    0.0000 </r>
       <r>   13.0629    0.0000 </r>
       <r>   13.2653    0.0000 </r>
       <r>   13.5017    0.0000 </r>
       <r>   14.8296    0.0000 </r>
       <r>   14.9826    0.0000 </r>
       <r>   15.4817    0.0000 </r>
       <r>   15.6187    0.0000 </r>
       <r>   16.1836    0.0000 </r>
      </set>
      <set comment="kpoint 7">
       <r>  -12.5024    1.0000 </r>
       <r>  -11.8054    1.0000 </r>
       <r>   -8.5754    1.0000 </r>
       <r>   -8.3280    1.0000 </r>
       <r>   -6.0665    1.0000 </r>
       <r>   -5.6394    1.0000 </r>
       <r>   -4.6706    1.0000 </r>
       <r>   -4.6416    1.0000 </r>
       <r>   -3.9155    1.0000 </r>
       <r>   -3.0452    1.0000 </r>
       <r>   -2.4734    1.0000 </r>
       <r>   -2.0826    1.0000 </r>
       <r>   -1.3177    1.0000 </r>
       <r>   -1.0371    1.0000 </r>
       <r>   -0.4387    1.0000 </r>
       <r>   -0.2879    1.0000 </r>
       <r>    0.0524    1.0000 </r>
       <r>    0.2154    1.0000 </r>
       <r>    0.3686    1.0000 </r>
       <r>    1.1425    1.0000 </r>
       <r>    1.5241    1.0000 </r>
       <r>    1.8365    0.9891 </r>
       <r>    5.8994    0.0000 </r>
       <r>    6.0301    0.0000 </r>
       <r>    6.3417    0.0000 </r>
       <r>    6.5395    0.0000 </r>
       <r>    7.1429    0.0000 </r>
       <r>    7.5497    0.0000 </r>
       <r>    8.3268    0.0000 </r>
       <r>    8.7721    0.0000 </r>
       <r>    9.1007    0.0000 </r>
       <r>    9.6237    0.0000 </r>
       <r>    9.7695    0.0000 </r>
       <r>   10.1183    0.0000 </r>
       <r>   10.3871    0.0000 </r>
       <r>   11.0398    0.0000 </r>
       <r>   11.4408    0.0000 </r>
       <r>   11.9827    0.0000 </r>
       <r>   12.4744    0.0000 </r>
       <r>   12.7061    0.0000 </r>
       <r>   13.2324    0.0000 </r>
       <r>   13.4138    0.0000 </r>
       <r>   14.1297    0.0000 </r>
       <r>   14.7326    0.0000 </r>
       <r>   15.0259    0.0000 </r>
       <r>   15.4047    0.0000 </r>
       <r>   15.6278    0.0000 </r>
       <r>   16.1695    0.0000 </r>
      </set>
      <set comment="kpoint 8">
       <r>  -12.3019    1.0000 </r>
       <r>  -12.0553    1.0000 </r>
       <r>   -8.4792    1.0000 </r>
       <r>   -8.3767    1.0000 </r>
       <r>   -6.0921    1.0000 </r>
       <r>   -5.9372    1.0000 </r>
       <r>   -4.4323    1.0000 </r>
       <r>   -4.1687    1.0000 </r>
       <r>   -4.0292    1.0000 </r>
       <r>   -3.1879    1.0000 </r>
       <r>   -2.2046    1.0000 </r>
       <r>   -1.8907    1.0000 </r>
       <r>   -1.2616    1.0000 </r>
       <r>   -1.2101    1.0000 </r>
       <r>   -0.6601    1.0000 </r>
       <r>   -0.4865    1.0000 </r>
       <r>   -0.0511    1.0000 </r>
       <r>    0.0682    1.0000 </r>
       <r>    0.7354    1.0000 </r>
       <r>    1.1285    1.0000 </r>
       <r>    1.2637    1.0000 </r>
       <r>    1.3141    1.0000 </r>
       <r>    6.0803    0.0000 </r>
       <r>    6.2888    0.0000 </r>
       <r>    6.8515    0.0000 </r>
       <r>    7.0540    0.0000 </r>
       <r>    7.0873    0.0000 </r>
       <r>    7.6136    0.0000 </r>
       <r>    8.0253    0.0000 </r>
       <r>    8.5734    0.0000 </r>
       <r>    8.9037    0.0000 </r>
       <r>    8.9933    0.0000 </r>
       <r>   10.0269    0.0000 </r>
       <r>   10.4139    0.0000 </r>
       <r>   10.7251    0.0000 </r>
       <r>   11.0278    0.0000 </r>
       <r>   11.5952    0.0000 </r>
       <r>   11.9084    0.0000 </r>
       <r>   12.2971    0.0000 </r>
       <r>   12.8523    0.0000 </r>
       <r>   13.2409    0.0000 </r>
       <r>   13.7291    0.0000 </r>
       <r>   14.2363    0.0000 </r>
       <r>   14.4334    0.0000 </r>
       <r>   14.9921    0.0000 </r>
       <r>   15.2261    0.0000 </r>
       <r>   15.7464    0.0000 </r>
       <r>   16.2635    0.0000 </r>
      </set>
      <set comment="kpoint 9">
       <r>  -12.5987    1.0000 </r>
       <r>  -11.4705    1.0000 </r>
       <r>   -8.5647    1.0000 </r>
       <r>   -8.2862    1.0000 </r>
       <r>   -6.0154    1.0000 </r>
       <r>   -5.5930    1.0000 </r>
       <r>   -4.9939    1.0000 </r>
       <r>   -4.4269    1.0000 </r>
       <r>   -4.3683    1.0000 </r>
       <r>   -4.1453    1.0000 </r>
       <r>   -3.4022    1.0000 </r>
       <r>   -1.1962    1.0000 </r>
       <r>   -1.0794    1.0000 </r>
       <r>   -0.9633    1.0000 </r>
       <r>   -0.1907    1.0000 </r>
       <r>    0.0624    1.0000 </r>
       <r>    0.3571    1.0000 </r>
       <r>    0.6084    1.0000 </r>
       <r>    0.6746    1.0000 </r>
       <r>    0.9654    1.0000 </r>
       <r>    0.9951    1.0000 </r>
       <r>    2.5235    0.0000 </r>
       <r>    4.9610    0.0000 </r>
       <r>    5.1803    0.0000 </r>
       <r>    6.2541    0.0000 </r>
       <r>    6.5597    0.0000 </r>
       <r>    7.3103    0.0000 </r>
       <r>    8.0951    0.0000 </r>
       <r>    8.7715    0.0000 </r>
       <r>    9.0486    0.0000 </r>
       <r>    9.4841    0.0000 </r>
       <r>    9.4900    0.0000 </r>
       <r>    9.6667    0.0000 </r>
       <r>   10.7133    0.0000 </r>
       <r>   11.1242    0.0000 </r>
       <r>   11.7596    0.0000 </r>
       <r>   11.9358    0.0000 </r>
       <r>   12.3795    0.0000 </r>
       <r>   12.4686    0.0000 </r>
       <r>   12.5203    0.0000 </r>
       <r>   12.8005    0.0000 </r>
       <r>   12.9666    0.0000 </r>
       <r>   13.7793    0.0000 </r>
       <r>   13.8510    0.0000 </r>
       <r>   14.5163    0.0000 </r>
       <r>   15.1037    0.0000 </r>
       <r>   15.3519    0.0000 </r>
       <r>   15.9857    0.0000 </r>
      </set>
      <set comment="kpoint 10">
       <r>  -12.5547    1.0000 </r>
       <r>  -11.5433    1.0000 </r>
       <r>   -8.5584    1.0000 </r>
       <r>   -8.2696    1.0000 </r>
       <r>   -5.9556    1.0000 </r>
       <r>   -5.5494    1.0000 </r>
       <r>   -5.2097    1.0000 </r>
       <r>   -4.6465    1.0000 </r>
       <r>   -4.4902    1.0000 </r>
       <r>   -3.6771    1.0000 </r>
       <r>   -3.0267    1.0000 </r>
       <r>   -1.3846    1.0000 </r>
       <r>   -1.1839    1.0000 </r>
       <r>   -0.9631    1.0000 </r>
       <r>   -0.1980    1.0000 </r>
       <r>    0.0942    1.0000 </r>
       <r>    0.2461    1.0000 </r>
       <r>    0.5710    1.0000 </r>
       <r>    0.5906    1.0000 </r>
       <r>    0.8361    1.0000 </r>
       <r>    1.0478    1.0000 </r>
       <r>    2.3454    0.0000 </r>
       <r>    5.0554    0.0000 </r>
       <r>    5.4942    0.0000 </r>
       <r>    6.2023    0.0000 </r>
       <r>    6.7497    0.0000 </r>
       <r>    7.4622    0.0000 </r>
       <r>    8.0146    0.0000 </r>
       <r>    8.6409    0.0000 </r>
       <r>    9.1236    0.0000 </r>
       <r>    9.4882    0.0000 </r>
       <r>    9.7085    0.0000 </r>
       <r>    9.9423    0.0000 </r>
       <r>   10.3233    0.0000 </r>
       <r>   10.5966    0.0000 </r>
       <r>   11.7494    0.0000 </r>
       <r>   11.8418    0.0000 </r>
       <r>   12.1492    0.0000 </r>
       <r>   12.5468    0.0000 </r>
       <r>   12.6903    0.0000 </r>
       <r>   12.9069    0.0000 </r>
       <r>   13.4914    0.0000 </r>
       <r>   13.7676    0.0000 </r>
       <r>   13.8930    0.0000 </r>
       <r>   14.3663    0.0000 </r>
       <r>   15.0188    0.0000 </r>
       <r>   15.4271    0.0000 </r>
       <r>   15.8055    0.0000 </r>
      </set>
      <set comment="kpoint 11">
       <r>  -12.4267    1.0000 </r>
       <r>  -11.7346    1.0000 </r>
       <r>   -8.5122    1.0000 </r>
       <r>   -8.2609    1.0000 </r>
       <r>   -5.9645    1.0000 </r>
       <r>   -5.5571    1.0000 </r>
       <r>   -5.3620    1.0000 </r>
       <r>   -4.6679    1.0000 </r>
       <r>   -4.6030    1.0000 </r>
       <r>   -2.9672    1.0000 </r>
       <r>   -2.3987    1.0000 </r>
       <r>   -2.0457    1.0000 </r>
       <r>   -1.1609    1.0000 </r>
       <r>   -0.9488    1.0000 </r>
       <r>   -0.3474    1.0000 </r>
       <r>   -0.0907    1.0000 </r>
       <r>    0.2731    1.0000 </r>
       <r>    0.3978    1.0000 </r>
       <r>    0.4538    1.0000 </r>
       <r>    0.7682    1.0000 </r>
       <r>    0.9826    1.0000 </r>
       <r>    1.8753    0.8847 </r>
       <r>    5.5550    0.0000 </r>
       <r>    6.1259    0.0000 </r>
       <r>    6.2484    0.0000 </r>
       <r>    6.9319    0.0000 </r>
       <r>    7.6542    0.0000 </r>
       <r>    8.0278    0.0000 </r>
       <r>    8.5099    0.0000 </r>
       <r>    9.1844    0.0000 </r>
       <r>    9.3045    0.0000 </r>
       <r>    9.4974    0.0000 </r>
       <r>    9.8354    0.0000 </r>
       <r>   10.3646    0.0000 </r>
       <r>   10.7684    0.0000 </r>
       <r>   11.2746    0.0000 </r>
       <r>   11.3879    0.0000 </r>
       <r>   11.9383    0.0000 </r>
       <r>   12.8217    0.0000 </r>
       <r>   13.0605    0.0000 </r>
       <r>   13.3482    0.0000 </r>
       <r>   13.5684    0.0000 </r>
       <r>   13.7874    0.0000 </r>
       <r>   14.0530    0.0000 </r>
       <r>   14.5042    0.0000 </r>
       <r>   15.1275    0.0000 </r>
       <r>   15.3583    0.0000 </r>
       <r>   16.1573    0.0000 </r>
      </set>
      <set comment="kpoint 12">
       <r>  -12.2277    1.0000 </r>
       <r>  -11.9828    1.0000 </r>
       <r>   -8.4152    1.0000 </r>
       <r>   -8.3121    1.0000 </r>
       <r>   -5.9875    1.0000 </r>
       <r>   -5.8348    1.0000 </r>
       <r>   -5.1661    1.0000 </r>
       <r>   -4.9125    1.0000 </r>
       <r>   -3.9850    1.0000 </r>
       <r>   -3.1460    1.0000 </r>
       <r>   -2.1262    1.0000 </r>
       <r>   -1.8294    1.0000 </r>
       <r>   -1.0743    1.0000 </r>
       <r>   -0.9017    1.0000 </r>
       <r>   -0.7239    1.0000 </r>
       <r>   -0.4217    1.0000 </r>
       <r>    0.1383    1.0000 </r>
       <r>    0.2639    1.0000 </r>
       <r>    0.7426    1.0000 </r>
       <r>    0.8048    1.0000 </r>
       <r>    0.8703    1.0000 </r>
       <r>    1.2935    1.0000 </r>
       <r>    6.4054    0.0000 </r>
       <r>    6.4382    0.0000 </r>
       <r>    6.7393    0.0000 </r>
       <r>    6.8872    0.0000 </r>
       <r>    7.4160    0.0000 </r>
       <r>    7.7966    0.0000 </r>
       <r>    8.4452    0.0000 </r>
       <r>    8.5373    0.0000 </r>
       <r>    9.4092    0.0000 </r>
       <r>    9.6228    0.0000 </r>
       <r>    9.8003    0.0000 </r>
       <r>   10.3493    0.0000 </r>
       <r>   10.7063    0.0000 </r>
       <r>   11.1801    0.0000 </r>
       <r>   11.8374    0.0000 </r>
       <r>   12.0632    0.0000 </r>
       <r>   12.5124    0.0000 </r>
       <r>   13.2514    0.0000 </r>
       <r>   13.4098    0.0000 </r>
       <r>   13.5557    0.0000 </r>
       <r>   13.8137    0.0000 </r>
       <r>   13.9741    0.0000 </r>
       <r>   14.9004    0.0000 </r>
       <r>   15.0977    0.0000 </r>
       <r>   15.4867    0.0000 </r>
       <r>   16.0681    0.0000 </r>
      </set>
      <set comment="kpoint 13">
       <r>  -12.5169    1.0000 </r>
       <r>  -11.3973    1.0000 </r>
       <r>   -8.5037    1.0000 </r>
       <r>   -8.2080    1.0000 </r>
       <r>   -6.1329    1.0000 </r>
       <r>   -5.9216    1.0000 </r>
       <r>   -4.9685    1.0000 </r>
       <r>   -4.8666    1.0000 </r>
       <r>   -4.2704    1.0000 </r>
       <r>   -4.0908    1.0000 </r>
       <r>   -3.3091    1.0000 </r>
       <r>   -1.5911    1.0000 </r>
       <r>   -1.4361    1.0000 </r>
       <r>   -1.0467    1.0000 </r>
       <r>    0.0925    1.0000 </r>
       <r>    0.3304    1.0000 </r>
       <r>    0.4013    1.0000 </r>
       <r>    0.4426    1.0000 </r>
       <r>    0.6286    1.0000 </r>
       <r>    0.8419    1.0000 </r>
       <r>    1.6738    1.0000 </r>
       <r>    2.5667    0.0000 </r>
       <r>    4.5301    0.0000 </r>
       <r>    4.8544    0.0000 </r>
       <r>    6.3996    0.0000 </r>
       <r>    7.0383    0.0000 </r>
       <r>    7.0991    0.0000 </r>
       <r>    8.5004    0.0000 </r>
       <r>    8.7117    0.0000 </r>
       <r>    9.8381    0.0000 </r>
       <r>    9.8729    0.0000 </r>
       <r>    9.9698    0.0000 </r>
       <r>   10.5276    0.0000 </r>
       <r>   10.5983    0.0000 </r>
       <r>   11.0779    0.0000 </r>
       <r>   11.7675    0.0000 </r>
       <r>   11.9633    0.0000 </r>
       <r>   12.3725    0.0000 </r>
       <r>   12.5347    0.0000 </r>
       <r>   12.5877    0.0000 </r>
       <r>   12.8636    0.0000 </r>
       <r>   12.9872    0.0000 </r>
       <r>   13.2278    0.0000 </r>
       <r>   14.2564    0.0000 </r>
       <r>   14.6994    0.0000 </r>
       <r>   14.9915    0.0000 </r>
       <r>   15.7176    0.0000 </r>
       <r>   15.8232    0.0000 </r>
      </set>
      <set comment="kpoint 14">
       <r>  -12.4733    1.0000 </r>
       <r>  -11.4697    1.0000 </r>
       <r>   -8.4953    1.0000 </r>
       <r>   -8.1941    1.0000 </r>
       <r>   -6.0853    1.0000 </r>
       <r>   -5.8514    1.0000 </r>
       <r>   -5.1036    1.0000 </r>
       <r>   -5.0336    1.0000 </r>
       <r>   -4.5659    1.0000 </r>
       <r>   -3.5972    1.0000 </r>
       <r>   -2.9311    1.0000 </r>
       <r>   -1.6064    1.0000 </r>
       <r>   -1.4070    1.0000 </r>
       <r>   -1.3178    1.0000 </r>
       <r>    0.0723    1.0000 </r>
       <r>    0.1280    1.0000 </r>
       <r>    0.2961    1.0000 </r>
       <r>    0.4811    1.0000 </r>
       <r>    0.5575    1.0000 </r>
       <r>    0.9093    1.0000 </r>
       <r>    1.6472    1.0000 </r>
       <r>    2.3873    0.0000 </r>
       <r>    4.6519    0.0000 </r>
       <r>    5.1449    0.0000 </r>
       <r>    6.3642    0.0000 </r>
       <r>    7.1781    0.0000 </r>
       <r>    7.3041    0.0000 </r>
       <r>    8.4377    0.0000 </r>
       <r>    8.8800    0.0000 </r>
       <r>    9.4811    0.0000 </r>
       <r>    9.9195    0.0000 </r>
       <r>    9.9692    0.0000 </r>
       <r>   10.2680    0.0000 </r>
       <r>   10.6501    0.0000 </r>
       <r>   11.0271    0.0000 </r>
       <r>   11.9347    0.0000 </r>
       <r>   12.0579    0.0000 </r>
       <r>   12.2728    0.0000 </r>
       <r>   12.3576    0.0000 </r>
       <r>   12.5057    0.0000 </r>
       <r>   12.9014    0.0000 </r>
       <r>   12.9394    0.0000 </r>
       <r>   13.5876    0.0000 </r>
       <r>   14.1464    0.0000 </r>
       <r>   14.5993    0.0000 </r>
       <r>   15.0528    0.0000 </r>
       <r>   15.5904    0.0000 </r>
       <r>   15.8410    0.0000 </r>
      </set>
      <set comment="kpoint 15">
       <r>  -12.3464    1.0000 </r>
       <r>  -11.6597    1.0000 </r>
       <r>   -8.4463    1.0000 </r>
       <r>   -8.1900    1.0000 </r>
       <r>   -5.9571    1.0000 </r>
       <r>   -5.8305    1.0000 </r>
       <r>   -5.4120    1.0000 </r>
       <r>   -5.2079    1.0000 </r>
       <r>   -4.5453    1.0000 </r>
       <r>   -2.8766    1.0000 </r>
       <r>   -2.3073    1.0000 </r>
       <r>   -2.0057    1.0000 </r>
       <r>   -1.5686    1.0000 </r>
       <r>   -1.2891    1.0000 </r>
       <r>   -0.2840    1.0000 </r>
       <r>   -0.0839    1.0000 </r>
       <r>    0.2092    1.0000 </r>
       <r>    0.3112    1.0000 </r>
       <r>    0.4382    1.0000 </r>
       <r>    1.0991    1.0000 </r>
       <r>    1.5694    1.0000 </r>
       <r>    1.9135    0.5469 </r>
       <r>    5.1638    0.0000 </r>
       <r>    5.7819    0.0000 </r>
       <r>    6.4319    0.0000 </r>
       <r>    7.3593    0.0000 </r>
       <r>    7.4462    0.0000 </r>
       <r>    8.4542    0.0000 </r>
       <r>    8.8793    0.0000 </r>
       <r>    9.2310    0.0000 </r>
       <r>    9.3427    0.0000 </r>
       <r>    9.9293    0.0000 </r>
       <r>   10.3088    0.0000 </r>
       <r>   10.8063    0.0000 </r>
       <r>   11.2810    0.0000 </r>
       <r>   11.4664    0.0000 </r>
       <r>   12.0627    0.0000 </r>
       <r>   12.2173    0.0000 </r>
       <r>   12.2379    0.0000 </r>
       <r>   12.4717    0.0000 </r>
       <r>   13.0552    0.0000 </r>
       <r>   13.3339    0.0000 </r>
       <r>   13.5449    0.0000 </r>
       <r>   14.4219    0.0000 </r>
       <r>   14.5470    0.0000 </r>
       <r>   14.9729    0.0000 </r>
       <r>   15.2265    0.0000 </r>
       <r>   15.7786    0.0000 </r>
      </set>
      <set comment="kpoint 16">
       <r>  -12.1489    1.0000 </r>
       <r>  -11.9060    1.0000 </r>
       <r>   -8.3483    1.0000 </r>
       <r>   -8.2441    1.0000 </r>
       <r>   -5.8810    1.0000 </r>
       <r>   -5.7589    1.0000 </r>
       <r>   -5.6632    1.0000 </r>
       <r>   -5.4508    1.0000 </r>
       <r>   -3.9350    1.0000 </r>
       <r>   -3.0974    1.0000 </r>
       <r>   -2.0365    1.0000 </r>
       <r>   -1.7587    1.0000 </r>
       <r>   -1.4205    1.0000 </r>
       <r>   -1.2231    1.0000 </r>
       <r>   -0.6829    1.0000 </r>
       <r>   -0.3411    1.0000 </r>
       <r>   -0.1196    1.0000 </r>
       <r>    0.0444    1.0000 </r>
       <r>    0.8063    1.0000 </r>
       <r>    1.2822    1.0000 </r>
       <r>    1.3332    1.0000 </r>
       <r>    1.4474    1.0000 </r>
       <r>    6.0193    0.0000 </r>
       <r>    6.5076    0.0000 </r>
       <r>    6.7243    0.0000 </r>
       <r>    7.0323    0.0000 </r>
       <r>    7.1067    0.0000 </r>
       <r>    7.6246    0.0000 </r>
       <r>    9.2297    0.0000 </r>
       <r>    9.2671    0.0000 </r>
       <r>    9.5356    0.0000 </r>
       <r>    9.8564    0.0000 </r>
       <r>   10.2936    0.0000 </r>
       <r>   10.3894    0.0000 </r>
       <r>   11.3833    0.0000 </r>
       <r>   11.6620    0.0000 </r>
       <r>   12.1462    0.0000 </r>
       <r>   12.2730    0.0000 </r>
       <r>   12.4194    0.0000 </r>
       <r>   12.4988    0.0000 </r>
       <r>   12.8060    0.0000 </r>
       <r>   13.4437    0.0000 </r>
       <r>   13.6395    0.0000 </r>
       <r>   13.7981    0.0000 </r>
       <r>   14.8602    0.0000 </r>
       <r>   15.0130    0.0000 </r>
       <r>   15.3061    0.0000 </r>
       <r>   15.6823    0.0000 </r>
      </set>
      <set comment="kpoint 17">
       <r>  -12.4637    1.0000 </r>
       <r>  -11.3499    1.0000 </r>
       <r>   -8.4647    1.0000 </r>
       <r>   -8.1569    1.0000 </r>
       <r>   -6.4198    1.0000 </r>
       <r>   -5.8619    1.0000 </r>
       <r>   -5.2547    1.0000 </r>
       <r>   -4.7805    1.0000 </r>
       <r>   -4.2001    1.0000 </r>
       <r>   -4.0523    1.0000 </r>
       <r>   -3.2454    1.0000 </r>
       <r>   -1.8404    1.0000 </r>
       <r>   -1.7028    1.0000 </r>
       <r>   -1.0386    1.0000 </r>
       <r>    0.1005    1.0000 </r>
       <r>    0.1188    1.0000 </r>
       <r>    0.1312    1.0000 </r>
       <r>    0.4367    1.0000 </r>
       <r>    0.7100    1.0000 </r>
       <r>    1.2317    1.0000 </r>
       <r>    2.3086    0.0000 </r>
       <r>    2.5913    0.0000 </r>
       <r>    4.2877    0.0000 </r>
       <r>    4.6678    0.0000 </r>
       <r>    6.4707    0.0000 </r>
       <r>    7.0099    0.0000 </r>
       <r>    7.3877    0.0000 </r>
       <r>    8.6237    0.0000 </r>
       <r>    8.6689    0.0000 </r>
       <r>    9.7875    0.0000 </r>
       <r>   10.0723    0.0000 </r>
       <r>   10.2848    0.0000 </r>
       <r>   10.6203    0.0000 </r>
       <r>   11.0552    0.0000 </r>
       <r>   11.1605    0.0000 </r>
       <r>   11.2462    0.0000 </r>
       <r>   11.9328    0.0000 </r>
       <r>   12.1603    0.0000 </r>
       <r>   12.4549    0.0000 </r>
       <r>   13.0972    0.0000 </r>
       <r>   13.3579    0.0000 </r>
       <r>   13.5608    0.0000 </r>
       <r>   13.7566    0.0000 </r>
       <r>   14.5135    0.0000 </r>
       <r>   14.8565    0.0000 </r>
       <r>   15.1516    0.0000 </r>
       <r>   15.2958    0.0000 </r>
       <r>   15.2978    0.0000 </r>
      </set>
      <set comment="kpoint 18">
       <r>  -12.4203    1.0000 </r>
       <r>  -11.4220    1.0000 </r>
       <r>   -8.4550    1.0000 </r>
       <r>   -8.1449    1.0000 </r>
       <r>   -6.3705    1.0000 </r>
       <r>   -5.7864    1.0000 </r>
       <r>   -5.3210    1.0000 </r>
       <r>   -5.0285    1.0000 </r>
       <r>   -4.5103    1.0000 </r>
       <r>   -3.5396    1.0000 </r>
       <r>   -2.8613    1.0000 </r>
       <r>   -1.8614    1.0000 </r>
       <r>   -1.6373    1.0000 </r>
       <r>   -1.3348    1.0000 </r>
       <r>   -0.1477    1.0000 </r>
       <r>    0.1370    1.0000 </r>
       <r>    0.1917    1.0000 </r>
       <r>    0.3145    1.0000 </r>
       <r>    0.6154    1.0000 </r>
       <r>    1.3275    1.0000 </r>
       <r>    2.2707    0.0000 </r>
       <r>    2.4120    0.0000 </r>
       <r>    4.4220    0.0000 </r>
       <r>    4.9509    0.0000 </r>
       <r>    6.4382    0.0000 </r>
       <r>    7.1264    0.0000 </r>
       <r>    7.6172    0.0000 </r>
       <r>    8.5961    0.0000 </r>
       <r>    8.8816    0.0000 </r>
       <r>    9.2817    0.0000 </r>
       <r>    9.9391    0.0000 </r>
       <r>   10.3020    0.0000 </r>
       <r>   10.4062    0.0000 </r>
       <r>   11.0908    0.0000 </r>
       <r>   11.2301    0.0000 </r>
       <r>   11.6524    0.0000 </r>
       <r>   11.9428    0.0000 </r>
       <r>   12.1287    0.0000 </r>
       <r>   12.4813    0.0000 </r>
       <r>   13.1135    0.0000 </r>
       <r>   13.2255    0.0000 </r>
       <r>   13.5666    0.0000 </r>
       <r>   13.7728    0.0000 </r>
       <r>   14.2788    0.0000 </r>
       <r>   14.5279    0.0000 </r>
       <r>   14.8454    0.0000 </r>
       <r>   15.0578    0.0000 </r>
       <r>   15.5150    0.0000 </r>
      </set>
      <set comment="kpoint 19">
       <r>  -12.2941    1.0000 </r>
       <r>  -11.6111    1.0000 </r>
       <r>   -8.4042    1.0000 </r>
       <r>   -8.1440    1.0000 </r>
       <r>   -6.2285    1.0000 </r>
       <r>   -5.7650    1.0000 </r>
       <r>   -5.5026    1.0000 </r>
       <r>   -5.3344    1.0000 </r>
       <r>   -4.5060    1.0000 </r>
       <r>   -2.8048    1.0000 </r>
       <r>   -2.2293    1.0000 </r>
       <r>   -1.9736    1.0000 </r>
       <r>   -1.8321    1.0000 </r>
       <r>   -1.5505    1.0000 </r>
       <r>   -0.4003    1.0000 </r>
       <r>   -0.2008    1.0000 </r>
       <r>    0.0215    1.0000 </r>
       <r>    0.2704    1.0000 </r>
       <r>    0.4546    1.0000 </r>
       <r>    1.5510    1.0000 </r>
       <r>    1.9368    0.2939 </r>
       <r>    2.1648    0.0000 </r>
       <r>    4.9420    0.0000 </r>
       <r>    5.5918    0.0000 </r>
       <r>    6.5177    0.0000 </r>
       <r>    7.2833    0.0000 </r>
       <r>    7.6611    0.0000 </r>
       <r>    8.4077    0.0000 </r>
       <r>    8.9515    0.0000 </r>
       <r>    9.1884    0.0000 </r>
       <r>    9.4673    0.0000 </r>
       <r>   10.1285    0.0000 </r>
       <r>   10.5605    0.0000 </r>
       <r>   11.2569    0.0000 </r>
       <r>   11.3868    0.0000 </r>
       <r>   11.9030    0.0000 </r>
       <r>   11.9736    0.0000 </r>
       <r>   12.1197    0.0000 </r>
       <r>   12.4825    0.0000 </r>
       <r>   12.8250    0.0000 </r>
       <r>   13.0603    0.0000 </r>
       <r>   13.5880    0.0000 </r>
       <r>   13.7548    0.0000 </r>
       <r>   14.1632    0.0000 </r>
       <r>   14.2778    0.0000 </r>
       <r>   14.6915    0.0000 </r>
       <r>   14.9078    0.0000 </r>
       <r>   15.5424    0.0000 </r>
      </set>
      <set comment="kpoint 20">
       <r>  -12.0978    1.0000 </r>
       <r>  -11.8561    1.0000 </r>
       <r>   -8.3052    1.0000 </r>
       <r>   -8.2003    1.0000 </r>
       <r>   -6.0127    1.0000 </r>
       <r>   -5.7898    1.0000 </r>
       <r>   -5.7453    1.0000 </r>
       <r>   -5.6268    1.0000 </r>
       <r>   -3.9010    1.0000 </r>
       <r>   -3.0620    1.0000 </r>
       <r>   -1.9413    1.0000 </r>
       <r>   -1.7199    1.0000 </r>
       <r>   -1.6490    1.0000 </r>
       <r>   -1.4993    1.0000 </r>
       <r>   -0.6275    1.0000 </r>
       <r>   -0.4252    1.0000 </r>
       <r>   -0.2904    1.0000 </r>
       <r>   -0.2300    1.0000 </r>
       <r>    0.8273    1.0000 </r>
       <r>    1.3489    1.0000 </r>
       <r>    1.7925    0.9998 </r>
       <r>    2.0019    0.0086 </r>
       <r>    5.8025    0.0000 </r>
       <r>    6.3530    0.0000 </r>
       <r>    6.8135    0.0000 </r>
       <r>    6.8803    0.0000 </r>
       <r>    7.2365    0.0000 </r>
       <r>    7.4269    0.0000 </r>
       <r>    9.1499    0.0000 </r>
       <r>    9.6486    0.0000 </r>
       <r>    9.7092    0.0000 </r>
       <r>   10.1304    0.0000 </r>
       <r>   10.5078    0.0000 </r>
       <r>   11.0119    0.0000 </r>
       <r>   11.7729    0.0000 </r>
       <r>   11.9142    0.0000 </r>
       <r>   12.0748    0.0000 </r>
       <r>   12.1127    0.0000 </r>
       <r>   12.3130    0.0000 </r>
       <r>   12.8476    0.0000 </r>
       <r>   13.1009    0.0000 </r>
       <r>   13.2023    0.0000 </r>
       <r>   13.7701    0.0000 </r>
       <r>   13.8071    0.0000 </r>
       <r>   14.2875    0.0000 </r>
       <r>   14.3755    0.0000 </r>
       <r>   15.3025    0.0000 </r>
       <r>   15.6357    0.0000 </r>
      </set>
      <set comment="kpoint 21">
       <r>  -12.6783    1.0000 </r>
       <r>  -11.6592    1.0000 </r>
       <r>   -8.6363    1.0000 </r>
       <r>   -8.2726    1.0000 </r>
       <r>   -6.5491    1.0000 </r>
       <r>   -5.5530    1.0000 </r>
       <r>   -4.0534    1.0000 </r>
       <r>   -3.9828    1.0000 </r>
       <r>   -3.7633    1.0000 </r>
       <r>   -3.0729    1.0000 </r>
       <r>   -2.8674    1.0000 </r>
       <r>   -2.1874    1.0000 </r>
       <r>   -1.8204    1.0000 </r>
       <r>   -1.2837    1.0000 </r>
       <r>   -0.8290    1.0000 </r>
       <r>   -0.1806    1.0000 </r>
       <r>    0.0535    1.0000 </r>
       <r>    0.2516    1.0000 </r>
       <r>    0.3351    1.0000 </r>
       <r>    1.7020    1.0000 </r>
       <r>    1.7734    1.0000 </r>
       <r>    3.2007    0.0000 </r>
       <r>    5.2824    0.0000 </r>
       <r>    5.4197    0.0000 </r>
       <r>    5.8514    0.0000 </r>
       <r>    6.5334    0.0000 </r>
       <r>    7.1727    0.0000 </r>
       <r>    7.3760    0.0000 </r>
       <r>    7.8334    0.0000 </r>
       <r>    8.8263    0.0000 </r>
       <r>    9.0300    0.0000 </r>
       <r>    9.3189    0.0000 </r>
       <r>    9.6600    0.0000 </r>
       <r>   10.2794    0.0000 </r>
       <r>   10.6746    0.0000 </r>
       <r>   11.0023    0.0000 </r>
       <r>   11.2134    0.0000 </r>
       <r>   12.0095    0.0000 </r>
       <r>   12.0295    0.0000 </r>
       <r>   12.5256    0.0000 </r>
       <r>   12.7481    0.0000 </r>
       <r>   13.3544    0.0000 </r>
       <r>   14.5660    0.0000 </r>
       <r>   14.5671    0.0000 </r>
       <r>   14.9834    0.0000 </r>
       <r>   15.1283    0.0000 </r>
       <r>   15.5560    0.0000 </r>
       <r>   16.3960    0.0000 </r>
      </set>
      <set comment="kpoint 22">
       <r>  -12.6357    1.0000 </r>
       <r>  -11.7173    1.0000 </r>
       <r>   -8.7020    1.0000 </r>
       <r>   -8.2610    1.0000 </r>
       <r>   -6.4572    1.0000 </r>
       <r>   -5.4657    1.0000 </r>
       <r>   -4.3486    1.0000 </r>
       <r>   -3.9844    1.0000 </r>
       <r>   -3.5350    1.0000 </r>
       <r>   -2.9348    1.0000 </r>
       <r>   -2.7430    1.0000 </r>
       <r>   -2.1654    1.0000 </r>
       <r>   -1.8697    1.0000 </r>
       <r>   -1.5527    1.0000 </r>
       <r>   -0.7306    1.0000 </r>
       <r>   -0.2789    1.0000 </r>
       <r>   -0.1602    1.0000 </r>
       <r>    0.2593    1.0000 </r>
       <r>    0.5005    1.0000 </r>
       <r>    1.4313    1.0000 </r>
       <r>    2.1104    0.0000 </r>
       <r>    2.8005    0.0000 </r>
       <r>    5.2794    0.0000 </r>
       <r>    5.7788    0.0000 </r>
       <r>    5.9990    0.0000 </r>
       <r>    6.5746    0.0000 </r>
       <r>    6.9817    0.0000 </r>
       <r>    7.1564    0.0000 </r>
       <r>    8.0661    0.0000 </r>
       <r>    8.8177    0.0000 </r>
       <r>    9.1570    0.0000 </r>
       <r>    9.4492    0.0000 </r>
       <r>    9.8959    0.0000 </r>
       <r>   10.1003    0.0000 </r>
       <r>   10.6526    0.0000 </r>
       <r>   10.8966    0.0000 </r>
       <r>   11.0079    0.0000 </r>
       <r>   11.8794    0.0000 </r>
       <r>   12.1297    0.0000 </r>
       <r>   12.8032    0.0000 </r>
       <r>   12.8762    0.0000 </r>
       <r>   13.8058    0.0000 </r>
       <r>   14.1918    0.0000 </r>
       <r>   14.4332    0.0000 </r>
       <r>   14.9708    0.0000 </r>
       <r>   15.3150    0.0000 </r>
       <r>   15.3514    0.0000 </r>
       <r>   16.3898    0.0000 </r>
      </set>
      <set comment="kpoint 23">
       <r>  -12.5124    1.0000 </r>
       <r>  -11.8770    1.0000 </r>
       <r>   -8.7519    1.0000 </r>
       <r>   -8.3448    1.0000 </r>
       <r>   -6.2207    1.0000 </r>
       <r>   -5.2303    1.0000 </r>
       <r>   -4.7507    1.0000 </r>
       <r>   -3.8231    1.0000 </r>
       <r>   -3.0833    1.0000 </r>
       <r>   -3.0736    1.0000 </r>
       <r>   -2.6348    1.0000 </r>
       <r>   -2.1823    1.0000 </r>
       <r>   -1.9671    1.0000 </r>
       <r>   -1.7829    1.0000 </r>
       <r>   -0.5505    1.0000 </r>
       <r>   -0.4375    1.0000 </r>
       <r>   -0.3010    1.0000 </r>
       <r>    0.2369    1.0000 </r>
       <r>    0.3640    1.0000 </r>
       <r>    1.5563    1.0000 </r>
       <r>    1.9405    0.2594 </r>
       <r>    2.2847    0.0000 </r>
       <r>    5.5141    0.0000 </r>
       <r>    6.2243    0.0000 </r>
       <r>    6.4445    0.0000 </r>
       <r>    6.5013    0.0000 </r>
       <r>    6.8372    0.0000 </r>
       <r>    7.0025    0.0000 </r>
       <r>    8.2281    0.0000 </r>
       <r>    8.7719    0.0000 </r>
       <r>    8.9390    0.0000 </r>
       <r>    9.5720    0.0000 </r>
       <r>    9.8070    0.0000 </r>
       <r>   10.3509    0.0000 </r>
       <r>   10.5343    0.0000 </r>
       <r>   10.7092    0.0000 </r>
       <r>   11.4888    0.0000 </r>
       <r>   11.9339    0.0000 </r>
       <r>   12.4018    0.0000 </r>
       <r>   13.0053    0.0000 </r>
       <r>   13.1405    0.0000 </r>
       <r>   13.8478    0.0000 </r>
       <r>   14.2435    0.0000 </r>
       <r>   14.3585    0.0000 </r>
       <r>   14.8554    0.0000 </r>
       <r>   15.2789    0.0000 </r>
       <r>   15.3788    0.0000 </r>
       <r>   15.8273    0.0000 </r>
      </set>
      <set comment="kpoint 24">
       <r>  -12.3232    1.0000 </r>
       <r>  -12.0967    1.0000 </r>
       <r>   -8.6849    1.0000 </r>
       <r>   -8.5222    1.0000 </r>
       <r>   -5.8971    1.0000 </r>
       <r>   -5.5034    1.0000 </r>
       <r>   -4.3014    1.0000 </r>
       <r>   -3.5886    1.0000 </r>
       <r>   -3.4875    1.0000 </r>
       <r>   -3.3063    1.0000 </r>
       <r>   -2.4204    1.0000 </r>
       <r>   -2.1043    1.0000 </r>
       <r>   -2.0635    1.0000 </r>
       <r>   -1.8467    1.0000 </r>
       <r>   -0.5228    1.0000 </r>
       <r>   -0.2844    1.0000 </r>
       <r>   -0.1644    1.0000 </r>
       <r>    0.0372    1.0000 </r>
       <r>    0.3255    1.0000 </r>
       <r>    1.0277    1.0000 </r>
       <r>    1.8961    0.7292 </r>
       <r>    2.1844    0.0000 </r>
       <r>    5.8128    0.0000 </r>
       <r>    6.1232    0.0000 </r>
       <r>    6.5603    0.0000 </r>
       <r>    6.7992    0.0000 </r>
       <r>    7.1597    0.0000 </r>
       <r>    7.2605    0.0000 </r>
       <r>    8.3120    0.0000 </r>
       <r>    8.3847    0.0000 </r>
       <r>    8.5735    0.0000 </r>
       <r>    8.6622    0.0000 </r>
       <r>    9.8962    0.0000 </r>
       <r>   10.2416    0.0000 </r>
       <r>   11.1588    0.0000 </r>
       <r>   11.6875    0.0000 </r>
       <r>   12.0403    0.0000 </r>
       <r>   12.1925    0.0000 </r>
       <r>   12.4066    0.0000 </r>
       <r>   12.7484    0.0000 </r>
       <r>   13.3417    0.0000 </r>
       <r>   13.6608    0.0000 </r>
       <r>   13.8243    0.0000 </r>
       <r>   14.1308    0.0000 </r>
       <r>   14.8875    0.0000 </r>
       <r>   15.2297    0.0000 </r>
       <r>   15.4753    0.0000 </r>
       <r>   15.7098    0.0000 </r>
      </set>
      <set comment="kpoint 25">
       <r>  -12.6335    1.0000 </r>
       <r>  -11.6170    1.0000 </r>
       <r>   -8.6018    1.0000 </r>
       <r>   -8.2311    1.0000 </r>
       <r>   -6.4992    1.0000 </r>
       <r>   -5.4872    1.0000 </r>
       <r>   -4.7914    1.0000 </r>
       <r>   -3.9355    1.0000 </r>
       <r>   -3.8128    1.0000 </r>
       <r>   -3.7097    1.0000 </r>
       <r>   -2.9974    1.0000 </r>
       <r>   -1.3785    1.0000 </r>
       <r>   -1.2724    1.0000 </r>
       <r>   -0.8668    1.0000 </r>
       <r>   -0.8015    1.0000 </r>
       <r>   -0.3260    1.0000 </r>
       <r>   -0.1408    1.0000 </r>
       <r>    0.1895    1.0000 </r>
       <r>    0.3069    1.0000 </r>
       <r>    1.2758    1.0000 </r>
       <r>    1.3539    1.0000 </r>
       <r>    3.2560    0.0000 </r>
       <r>    5.4680    0.0000 </r>
       <r>    5.5113    0.0000 </r>
       <r>    5.8860    0.0000 </r>
       <r>    6.2737    0.0000 </r>
       <r>    7.7918    0.0000 </r>
       <r>    8.0283    0.0000 </r>
       <r>    8.2887    0.0000 </r>
       <r>    8.3914    0.0000 </r>
       <r>    9.0197    0.0000 </r>
       <r>    9.3630    0.0000 </r>
       <r>    9.7259    0.0000 </r>
       <r>   10.1156    0.0000 </r>
       <r>   10.6235    0.0000 </r>
       <r>   11.3128    0.0000 </r>
       <r>   11.3265    0.0000 </r>
       <r>   12.1530    0.0000 </r>
       <r>   12.2085    0.0000 </r>
       <r>   12.6190    0.0000 </r>
       <r>   13.1273    0.0000 </r>
       <r>   13.3650    0.0000 </r>
       <r>   14.1047    0.0000 </r>
       <r>   14.6178    0.0000 </r>
       <r>   14.8019    0.0000 </r>
       <r>   15.1655    0.0000 </r>
       <r>   15.5425    0.0000 </r>
       <r>   15.9836    0.0000 </r>
      </set>
      <set comment="kpoint 26">
       <r>  -12.5910    1.0000 </r>
       <r>  -11.6751    1.0000 </r>
       <r>   -8.6643    1.0000 </r>
       <r>   -8.2217    1.0000 </r>
       <r>   -6.4042    1.0000 </r>
       <r>   -5.4044    1.0000 </r>
       <r>   -4.7457    1.0000 </r>
       <r>   -4.2905    1.0000 </r>
       <r>   -3.8469    1.0000 </r>
       <r>   -3.4827    1.0000 </r>
       <r>   -2.6829    1.0000 </r>
       <r>   -1.5647    1.0000 </r>
       <r>   -1.3604    1.0000 </r>
       <r>   -0.8579    1.0000 </r>
       <r>   -0.7149    1.0000 </r>
       <r>   -0.5436    1.0000 </r>
       <r>   -0.1935    1.0000 </r>
       <r>    0.2432    1.0000 </r>
       <r>    0.3592    1.0000 </r>
       <r>    1.0273    1.0000 </r>
       <r>    1.6648    1.0000 </r>
       <r>    2.8466    0.0000 </r>
       <r>    5.5635    0.0000 </r>
       <r>    5.7017    0.0000 </r>
       <r>    6.1361    0.0000 </r>
       <r>    6.3230    0.0000 </r>
       <r>    7.6255    0.0000 </r>
       <r>    7.7630    0.0000 </r>
       <r>    8.3751    0.0000 </r>
       <r>    8.6799    0.0000 </r>
       <r>    8.9306    0.0000 </r>
       <r>    9.5240    0.0000 </r>
       <r>    9.7199    0.0000 </r>
       <r>   10.1980    0.0000 </r>
       <r>   10.4731    0.0000 </r>
       <r>   11.1560    0.0000 </r>
       <r>   11.3904    0.0000 </r>
       <r>   11.9606    0.0000 </r>
       <r>   12.3778    0.0000 </r>
       <r>   12.7611    0.0000 </r>
       <r>   13.1841    0.0000 </r>
       <r>   13.6475    0.0000 </r>
       <r>   13.9619    0.0000 </r>
       <r>   14.5264    0.0000 </r>
       <r>   14.7144    0.0000 </r>
       <r>   15.3073    0.0000 </r>
       <r>   15.4719    0.0000 </r>
       <r>   16.0930    0.0000 </r>
      </set>
      <set comment="kpoint 27">
[...]
       <r>   -2.4920    1.0000 </r>
       <r>   -2.0470    1.0000 </r>
       <r>   -1.7910    1.0000 </r>
       <r>   -1.3772    1.0000 </r>
       <r>   -0.9887    1.0000 </r>
       <r>   -0.4106    1.0000 </r>
       <r>   -0.0556    1.0000 </r>
       <r>    0.3155    1.0000 </r>
       <r>    0.4833    1.0000 </r>
       <r>    1.6001    1.0000 </r>
       <r>    1.9560    0.1390 </r>
       <r>    2.1025    0.0000 </r>
       <r>    5.2420    0.0000 </r>
       <r>    6.1083    0.0000 </r>
       <r>    6.8560    0.0000 </r>
       <r>    6.9543    0.0000 </r>
       <r>    7.9646    0.0000 </r>
       <r>    8.5360    0.0000 </r>
       <r>    8.6912    0.0000 </r>
       <r>    8.8750    0.0000 </r>
       <r>    9.7200    0.0000 </r>
       <r>    9.9820    0.0000 </r>
       <r>   10.6451    0.0000 </r>
       <r>   11.0296    0.0000 </r>
       <r>   11.3262    0.0000 </r>
       <r>   11.5135    0.0000 </r>
       <r>   11.5767    0.0000 </r>
       <r>   12.2510    0.0000 </r>
       <r>   12.5766    0.0000 </r>
       <r>   12.8339    0.0000 </r>
       <r>   13.2210    0.0000 </r>
       <r>   13.4963    0.0000 </r>
       <r>   13.7005    0.0000 </r>
       <r>   14.0860    0.0000 </r>
       <r>   14.4023    0.0000 </r>
       <r>   15.0585    0.0000 </r>
       <r>   15.1274    0.0000 </r>
       <r>   15.4854    0.0000 </r>
      </set>
      <set comment="kpoint 60">
       <r>  -12.0551    1.0000 </r>
       <r>  -11.8549    1.0000 </r>
       <r>   -8.5634    1.0000 </r>
       <r>   -8.4027    1.0000 </r>
       <r>   -5.9246    1.0000 </r>
       <r>   -5.7673    1.0000 </r>
       <r>   -5.0828    1.0000 </r>
       <r>   -4.5984    1.0000 </r>
       <r>   -4.4379    1.0000 </r>
       <r>   -3.7730    1.0000 </r>
       <r>   -2.1824    1.0000 </r>
       <r>   -2.1189    1.0000 </r>
       <r>   -2.0679    1.0000 </r>
       <r>   -1.7173    1.0000 </r>
       <r>   -0.3117    1.0000 </r>
       <r>   -0.0683    1.0000 </r>
       <r>    0.3248    1.0000 </r>
       <r>    0.4949    1.0000 </r>
       <r>    0.5225    1.0000 </r>
       <r>    1.0105    1.0000 </r>
       <r>    1.6003    1.0000 </r>
       <r>    1.7587    1.0000 </r>
       <r>    5.8142    0.0000 </r>
       <r>    6.0720    0.0000 </r>
       <r>    6.8162    0.0000 </r>
       <r>    7.3331    0.0000 </r>
       <r>    7.6098    0.0000 </r>
       <r>    7.6594    0.0000 </r>
       <r>    9.2767    0.0000 </r>
       <r>    9.4235    0.0000 </r>
       <r>    9.7772    0.0000 </r>
       <r>    9.9473    0.0000 </r>
       <r>   10.4358    0.0000 </r>
       <r>   10.9066    0.0000 </r>
       <r>   11.2234    0.0000 </r>
       <r>   11.5519    0.0000 </r>
       <r>   11.5773    0.0000 </r>
       <r>   11.7481    0.0000 </r>
       <r>   13.0362    0.0000 </r>
       <r>   13.1875    0.0000 </r>
       <r>   13.5085    0.0000 </r>
       <r>   13.9048    0.0000 </r>
       <r>   14.0733    0.0000 </r>
       <r>   14.3186    0.0000 </r>
       <r>   14.4738    0.0000 </r>
       <r>   14.7779    0.0000 </r>
       <r>   14.9465    0.0000 </r>
       <r>   15.0947    0.0000 </r>
      </set>
     </set>
    </set>
   </array>
  </eigenvalues>
  <separator name="orbital magnetization" >
   <v name="MAGDIPOLOUT">      0.00000000      0.00000000      0.00000000</v>
  </separator>
  <dos>
   <i name="efermi">      1.91766753 </i>
   <total>
    <array>
     <dimension dim="1">gridpoints</dimension>
     <dimension dim="2">spin</dimension>
     <field>energy</field>
     <field>total</field>
     <field>integrated</field>
     <set>
      <set comment="spin 1">
       <r>   -14.1812     0.0000     0.0000 </r>
       <r>   -14.0741     0.0000     0.0000 </r>
       <r>   -13.9670     0.0000     0.0000 </r>
       <r>   -13.8599     0.0000     0.0000 </r>
       <r>   -13.7529     0.0000     0.0000 </r>
       <r>   -13.6458     0.0000     0.0000 </r>
       <r>   -13.5387     0.0000     0.0000 </r>
       <r>   -13.4317     0.0000     0.0000 </r>
       <r>   -13.3246     0.0000     0.0000 </r>
       <r>   -13.2175     0.0000     0.0000 </r>
       <r>   -13.1104     0.0000     0.0000 </r>
       <r>   -13.0034     0.0000     0.0000 </r>
       <r>   -12.8963     0.0000     0.0000 </r>
       <r>   -12.7892     0.0053     0.0006 </r>
       <r>   -12.6821     0.5542     0.0599 </r>
       <r>   -12.5751     2.4107     0.3180 </r>
       <r>   -12.4680     3.7458     0.7191 </r>
       <r>   -12.3609     4.0767     1.1556 </r>
       <r>   -12.2538     3.8977     1.5729 </r>
       <r>   -12.1468     2.2389     1.8127 </r>
       <r>   -12.0397     3.3206     2.1682 </r>
       <r>   -11.9326     1.9286     2.3747 </r>
       <r>   -11.8256     3.3266     2.7309 </r>
       <r>   -11.7185     2.9160     3.0431 </r>
       <r>   -11.6114     3.9167     3.4625 </r>
       <r>   -11.5043     2.8964     3.7726 </r>
       <r>   -11.3973     1.7232     3.9571 </r>
       <r>   -11.2902     0.3919     3.9991 </r>
       <r>   -11.1831     0.0084     4.0000 </r>
       <r>   -11.0760     0.0000     4.0000 </r>
       <r>   -10.9690     0.0000     4.0000 </r>
       <r>   -10.8619     0.0000     4.0000 </r>
       <r>   -10.7548     0.0000     4.0000 </r>
       <r>   -10.6478     0.0000     4.0000 </r>
       <r>   -10.5407     0.0000     4.0000 </r>
       <r>   -10.4336     0.0000     4.0000 </r>
       <r>   -10.3265     0.0000     4.0000 </r>
       <r>   -10.2195     0.0000     4.0000 </r>
       <r>   -10.1124     0.0000     4.0000 </r>
       <r>   -10.0053     0.0000     4.0000 </r>
       <r>    -9.8982     0.0000     4.0000 </r>
       <r>    -9.7912     0.0000     4.0000 </r>
       <r>    -9.6841     0.0000     4.0000 </r>
       <r>    -9.5770     0.0000     4.0000 </r>
       <r>    -9.4700     0.0000     4.0000 </r>
       <r>    -9.3629     0.0000     4.0000 </r>
       <r>    -9.2558     0.0000     4.0000 </r>
       <r>    -9.1487     0.0000     4.0000 </r>
       <r>    -9.0417     0.0000     4.0000 </r>
       <r>    -8.9346     0.0004     4.0000 </r>
       <r>    -8.8275     0.3206     4.0344 </r>
       <r>    -8.7204     2.0972     4.2589 </r>
       <r>    -8.6134     5.5177     4.8497 </r>
       <r>    -8.5063     6.9818     5.5973 </r>
       <r>    -8.3992     6.1287     6.2535 </r>
       <r>    -8.2921     5.3702     6.8285 </r>
       <r>    -8.1851     4.7833     7.3406 </r>
       <r>    -8.0780     3.8331     7.7511 </r>
       <r>    -7.9709     1.7003     7.9331 </r>
       <r>    -7.8639     0.5775     7.9950 </r>
       <r>    -7.7568     0.0470     8.0000 </r>
       <r>    -7.6497     0.0000     8.0000 </r>
       <r>    -7.5426     0.0000     8.0000 </r>
       <r>    -7.4356     0.0000     8.0000 </r>
       <r>    -7.3285     0.0000     8.0000 </r>
       <r>    -7.2214     0.0000     8.0000 </r>
       <r>    -7.1143     0.0000     8.0000 </r>
       <r>    -7.0073     0.0006     8.0001 </r>
       <r>    -6.9002     0.1337     8.0144 </r>
       <r>    -6.7931     0.2603     8.0422 </r>
       <r>    -6.6861     0.2804     8.0723 </r>
       <r>    -6.5790     0.8576     8.1641 </r>
       <r>    -6.4719     0.8952     8.2599 </r>
       <r>    -6.3648     1.6742     8.4392 </r>
       <r>    -6.2578     1.6390     8.6147 </r>
       <r>    -6.1507     2.5966     8.8927 </r>
       <r>    -6.0436     3.8728     9.3074 </r>
       <r>    -5.9365     4.4721     9.7862 </r>
       <r>    -5.8295     4.1847    10.2343 </r>
       <r>    -5.7224     4.2475    10.6891 </r>
       <r>    -5.6153     3.2847    11.0408 </r>
       <r>    -5.5083     3.7349    11.4407 </r>
       <r>    -5.4012     4.6653    11.9402 </r>
       <r>    -5.2941     5.6062    12.5405 </r>
       <r>    -5.1870     4.2175    12.9921 </r>
       <r>    -5.0800     4.2186    13.4438 </r>
       <r>    -4.9729     2.5543    13.7173 </r>
       <r>    -4.8658     2.2861    13.9620 </r>
       <r>    -4.7587     2.3629    14.2150 </r>
       <r>    -4.6517     4.1345    14.6577 </r>
       <r>    -4.5446     4.4015    15.1290 </r>
       <r>    -4.4375     3.1144    15.4625 </r>
       <r>    -4.3304     1.7835    15.6534 </r>
       <r>    -4.2234     2.3304    15.9030 </r>
       <r>    -4.1163     3.1322    16.2383 </r>
       <r>    -4.0092     3.6174    16.6257 </r>
       <r>    -3.9022     3.9040    17.0437 </r>
       <r>    -3.7951     2.9823    17.3630 </r>
       <r>    -3.6880     2.8896    17.6724 </r>
       <r>    -3.5809     2.2841    17.9170 </r>
       <r>    -3.4739     2.9901    18.2371 </r>
       <r>    -3.3668     1.9182    18.4425 </r>
       <r>    -3.2597     2.6591    18.7272 </r>
       <r>    -3.1526     2.3116    18.9747 </r>
       <r>    -3.0456     4.1316    19.4171 </r>
       <r>    -2.9385     4.0478    19.8505 </r>
       <r>    -2.8314     3.1063    20.1831 </r>
       <r>    -2.7244     2.1330    20.4115 </r>
       <r>    -2.6173     1.7337    20.5972 </r>
       <r>    -2.5102     2.4187    20.8561 </r>
       <r>    -2.4031     2.8780    21.1643 </r>
       <r>    -2.2961     2.7114    21.4546 </r>
       <r>    -2.1890     3.7121    21.8521 </r>
       <r>    -2.0819     4.8776    22.3743 </r>
       <r>    -1.9748     4.8252    22.8910 </r>
       <r>    -1.8678     4.1288    23.3331 </r>
       <r>    -1.7607     5.9695    23.9722 </r>
       <r>    -1.6536     4.2974    24.4324 </r>
       <r>    -1.5466     5.5441    25.0260 </r>
       <r>    -1.4395     5.7392    25.6405 </r>
       <r>    -1.3324     7.1850    26.4098 </r>
       <r>    -1.2253     5.5675    27.0060 </r>
       <r>    -1.1183     4.4475    27.4822 </r>
       <r>    -1.0112     4.5024    27.9643 </r>
       <r>    -0.9041     2.3588    28.2168 </r>
       <r>    -0.7970     2.5874    28.4939 </r>
       <r>    -0.6900     4.5116    28.9769 </r>
       <r>    -0.5829     4.2400    29.4309 </r>
       <r>    -0.4758     4.7218    29.9365 </r>
       <r>    -0.3687     7.4471    30.7339 </r>
       <r>    -0.2617     6.5776    31.4382 </r>
       <r>    -0.1546     5.5965    32.0374 </r>
       <r>    -0.0475     7.3944    32.8292 </r>
       <r>     0.0595     4.5538    33.3167 </r>
       <r>     0.1666     7.6374    34.1345 </r>
       <r>     0.2737     8.7678    35.0733 </r>
       <r>     0.3808     8.3319    35.9654 </r>
       <r>     0.4878     9.0117    36.9303 </r>
       <r>     0.5949     5.5709    37.5268 </r>
       <r>     0.7020     2.5134    37.7959 </r>
       <r>     0.8091     3.3979    38.1598 </r>
       <r>     0.9161     2.9832    38.4792 </r>
       <r>     1.0232     3.4015    38.8434 </r>
       <r>     1.1303     4.4031    39.3148 </r>
       <r>     1.2373     3.4775    39.6872 </r>
       <r>     1.3444     3.8132    40.0955 </r>
       <r>     1.4515     3.0036    40.4171 </r>
       <r>     1.5586     4.1696    40.8635 </r>
       <r>     1.6656     3.6328    41.2525 </r>
       <r>     1.7727     2.6231    41.5334 </r>
       <r>     1.8798     3.0758    41.8627 </r>
       <r>     1.9869     4.0065    42.2917 </r>
       <r>     2.0939     3.2784    42.6427 </r>
       <r>     2.2010     2.2523    42.8839 </r>
       <r>     2.3081     2.2009    43.1195 </r>
       <r>     2.4151     1.5902    43.2898 </r>
       <r>     2.5222     0.8548    43.3813 </r>
       <r>     2.6293     0.4091    43.4251 </r>
       <r>     2.7364     0.0449    43.4299 </r>
       <r>     2.8434     0.4897    43.4824 </r>
       <r>     2.9505     0.8569    43.5741 </r>
       <r>     3.0576     0.5377    43.6317 </r>
       <r>     3.1647     0.7113    43.7078 </r>
       <r>     3.2717     1.0970    43.8253 </r>
       <r>     3.3788     0.6163    43.8913 </r>
       <r>     3.4859     0.1257    43.9047 </r>
       <r>     3.5930     0.0002    43.9048 </r>
       <r>     3.7000     0.0000    43.9048 </r>
       <r>     3.8071     0.0598    43.9112 </r>
       <r>     3.9142     0.4845    43.9630 </r>
       <r>     4.0212     0.3400    43.9994 </r>
       <r>     4.1283     0.0052    44.0000 </r>
       <r>     4.2354     0.0124    44.0013 </r>
       <r>     4.3425     0.1602    44.0185 </r>
       <r>     4.4495     0.4098    44.0624 </r>
       <r>     4.5566     0.3313    44.0978 </r>
       <r>     4.6637     0.9001    44.1942 </r>
       <r>     4.7708     0.5695    44.2552 </r>
       <r>     4.8778     0.7747    44.3381 </r>
       <r>     4.9849     1.1603    44.4624 </r>
       <r>     5.0920     0.9229    44.5612 </r>
       <r>     5.1990     1.5008    44.7219 </r>
       <r>     5.3061     1.5748    44.8905 </r>
       <r>     5.4132     1.7559    45.0785 </r>
       <r>     5.5203     2.4446    45.3403 </r>
       <r>     5.6273     2.9589    45.6571 </r>
       <r>     5.7344     2.6603    45.9419 </r>
       <r>     5.8415     3.9652    46.3665 </r>
       <r>     5.9486     4.1004    46.8055 </r>
       <r>     6.0556     3.7454    47.2066 </r>
       <r>     6.1627     5.0901    47.7516 </r>
       <r>     6.2698     4.6626    48.2508 </r>
       <r>     6.3768     3.4377    48.6189 </r>
       <r>     6.4839     5.0438    49.1589 </r>
       <r>     6.5910     4.7790    49.6707 </r>
       <r>     6.6981     2.2137    49.9077 </r>
       <r>     6.8051     3.5617    50.2890 </r>
       <r>     6.9122     5.0937    50.8344 </r>
       <r>     7.0193     3.9721    51.2598 </r>
       <r>     7.1264     5.2975    51.8270 </r>
       <r>     7.2334     5.6589    52.4329 </r>
       <r>     7.3405     4.3063    52.8940 </r>
       <r>     7.4476     4.1855    53.3421 </r>
       <r>     7.5547     3.5971    53.7273 </r>
       <r>     7.6617     4.7659    54.2376 </r>
       <r>     7.7688     3.5237    54.6149 </r>
       <r>     7.8759     3.6665    55.0074 </r>
       <r>     7.9829     2.8107    55.3084 </r>
       <r>     8.0900     3.8158    55.7170 </r>
       <r>     8.1971     3.0625    56.0449 </r>
       <r>     8.3042     3.1756    56.3849 </r>
       <r>     8.4112     3.8503    56.7972 </r>
       <r>     8.5183     4.3800    57.2661 </r>
       <r>     8.6254     4.2431    57.7204 </r>
       <r>     8.7325     5.4210    58.3009 </r>
       <r>     8.8395     5.1279    58.8500 </r>
       <r>     8.9466     6.3041    59.5249 </r>
       <r>     9.0537     4.3611    59.9919 </r>
       <r>     9.1607     3.9285    60.4125 </r>
       <r>     9.2678     5.3466    60.9850 </r>
       <r>     9.3749     4.2349    61.4385 </r>
       <r>     9.4820     4.4038    61.9100 </r>
       <r>     9.5890     5.9280    62.5447 </r>
       <r>     9.6961     4.7076    63.0488 </r>
       <r>     9.8032     4.6036    63.5417 </r>
       <r>     9.9103     5.7527    64.1577 </r>
       <r>    10.0173     4.2181    64.6093 </r>
       <r>    10.1244     4.3944    65.0798 </r>
       <r>    10.2315     3.3664    65.4403 </r>
       <r>    10.3385     5.5560    66.0352 </r>
       <r>    10.4456     5.0421    66.5751 </r>
       <r>    10.5527     4.3400    67.0397 </r>
       <r>    10.6598     5.7683    67.6574 </r>
       <r>    10.7668     5.3373    68.2289 </r>
       <r>    10.8739     3.3089    68.5832 </r>
       <r>    10.9810     3.3050    68.9370 </r>
       <r>    11.0881     4.8712    69.4586 </r>
       <r>    11.1951     5.2180    70.0173 </r>
       <r>    11.3022     5.9126    70.6504 </r>
       <r>    11.4093     5.7680    71.2680 </r>
       <r>    11.5164     5.2287    71.8278 </r>
       <r>    11.6234     4.8251    72.3445 </r>
       <r>    11.7305     4.1131    72.7849 </r>
       <r>    11.8376     4.5687    73.2741 </r>
       <r>    11.9446     6.1524    73.9328 </r>
       <r>    12.0517     6.0865    74.5845 </r>
       <r>    12.1588     7.2558    75.3614 </r>
       <r>    12.2659     4.5575    75.8494 </r>
       <r>    12.3729     4.8620    76.3700 </r>
       <r>    12.4800     5.7613    76.9869 </r>
       <r>    12.5871     6.8941    77.7251 </r>
       <r>    12.6942     4.4662    78.2033 </r>
       <r>    12.8012     5.9217    78.8373 </r>
       <r>    12.9083     6.2705    79.5087 </r>
       <r>    13.0154     5.3244    80.0788 </r>
       <r>    13.1224     5.7125    80.6905 </r>
       <r>    13.2295     7.0195    81.4421 </r>
       <r>    13.3366     5.9351    82.0776 </r>
       <r>    13.4437     5.7359    82.6917 </r>
       <r>    13.5507     5.1474    83.2429 </r>
       <r>    13.6578     5.7119    83.8544 </r>
       <r>    13.7649     5.3305    84.4252 </r>
       <r>    13.8720     6.5897    85.1308 </r>
       <r>    13.9790     5.4802    85.7176 </r>
       <r>    14.0861     4.2520    86.1728 </r>
       <r>    14.1932     5.0156    86.7099 </r>
       <r>    14.3002     5.4742    87.2960 </r>
       <r>    14.4073     5.0489    87.8366 </r>
       <r>    14.5144     4.7547    88.3457 </r>
       <r>    14.6215     4.8753    88.8677 </r>
       <r>    14.7285     4.2739    89.3253 </r>
       <r>    14.8356     4.2327    89.7785 </r>
       <r>    14.9427     5.9537    90.4160 </r>
       <r>    15.0498     6.6521    91.1283 </r>
       <r>    15.1568     5.2664    91.6922 </r>
       <r>    15.2639     5.7682    92.3098 </r>
       <r>    15.3710     5.6089    92.9103 </r>
       <r>    15.4781     5.4118    93.4898 </r>
       <r>    15.5851     5.9992    94.1322 </r>
       <r>    15.6922     4.4251    94.6060 </r>
       <r>    15.7993     4.3922    95.0763 </r>
       <r>    15.9063     2.7214    95.3676 </r>
       <r>    16.0134     0.9238    95.4666 </r>
       <r>    16.1205     1.7921    95.6585 </r>
       <r>    16.2276     1.5168    95.8209 </r>
       <r>    16.3346     0.7407    95.9002 </r>
       <r>    16.4417     0.5820    95.9625 </r>
       <r>    16.5488     0.3408    95.9990 </r>
       <r>    16.6559     0.0096    96.0000 </r>
       <r>    16.7629     0.0000    96.0000 </r>
       <r>    16.8700     0.0000    96.0000 </r>
       <r>    16.9771     0.0000    96.0000 </r>
       <r>    17.0841     0.0000    96.0000 </r>
       <r>    17.1912     0.0000    96.0000 </r>
       <r>    17.2983     0.0000    96.0000 </r>
       <r>    17.4054     0.0000    96.0000 </r>
       <r>    17.5124     0.0000    96.0000 </r>
       <r>    17.6195     0.0000    96.0000 </r>
       <r>    17.7266     0.0000    96.0000 </r>
       <r>    17.8337     0.0000    96.0000 </r>
       <r>    17.9407     0.0000    96.0000 </r>
      </set>
     </set>
    </array>
   </total>
  </dos>
 </calculation>
 <structure name="finalpos" >
  <crystal>
   <varray name="basis" >
    <v>       5.69700000       0.00000000       0.00000000 </v>
    <v>       0.00000000       4.04790000       0.00000000 </v>
    <v>       0.00000000       0.00000000       6.20420000 </v>
   </varray>
   <i name="volume">    143.07435078 </i>
   <varray name="rec_basis" >
    <v>       0.17553098       0.00000000       0.00000000 </v>
    <v>       0.00000000       0.24704168       0.00000000 </v>
    <v>       0.00000000       0.00000000       0.16118114 </v>
   </varray>
  </crystal>
  <varray name="positions" >
   <v>       0.52123000       0.50000000       0.63796000 </v>
   <v>       0.47877000       0.50000000       0.36204000 </v>
   <v>       0.97877000       0.50000000       0.63796000 </v>
   <v>       0.02123000       0.50000000       0.36204000 </v>
   <v>       0.60090000       0.50000000       0.89991000 </v>
   <v>       0.39910000       0.50000000       0.10009000 </v>
   <v>       0.89910000       0.50000000       0.89991000 </v>
   <v>       0.10090000       0.50000000       0.10009000 </v>
   <v>       0.75000000       0.79171000       0.72973000 </v>
   <v>       0.25000000       0.20829000       0.27027000 </v>
   <v>       0.75000000       0.20829000       0.72973000 </v>
   <v>       0.25000000       0.79171000       0.27027000 </v>
   <v>       0.25000000       0.50000000       0.52367000 </v>
   <v>       0.75000000       0.50000000       0.47633000 </v>
  </varray>
 </structure>
</modeling>
