Automatically generated mesh
    1760
Reciprocal lattice
    0.02272727272727    0.00000000000000    0.02500000000000             4
    0.06818181818182    0.00000000000000    0.02500000000000             4
    0.11363636363637    0.00000000000000    0.02500000000000             4
    0.15909090909091    0.00000000000000    0.02500000000000             4
    0.20454545454545    0.00000000000000    0.02500000000000             4
    0.25000000000000    0.00000000000000    0.02500000000000             4
    0.29545454545455    0.00000000000000    0.02500000000000             4
    0.34090909090909    0.00000000000000    0.02500000000000             4
    0.38636363636363    0.00000000000000    0.02500000000000             4
    0.43181818181818    0.00000000000000    0.02500000000000             4
    0.47727272727273    0.00000000000000    0.02500000000000             4
    0.02272727272727    0.03225806451613    0.02500000000000             8
    0.06818181818182    0.03225806451613    0.02500000000000             8
    0.11363636363637    0.03225806451613    0.02500000000000             8
    0.15909090909091    0.03225806451613    0.02500000000000             8
    0.20454545454545    0.03225806451613    0.02500000000000             8
    0.25000000000000    0.03225806451613    0.02500000000000             8
    0.29545454545455    0.03225806451613    0.02500000000000             8
    0.34090909090909    0.03225806451613    0.02500000000000             8
    0.38636363636363    0.03225806451613    0.02500000000000             8
    0.43181818181818    0.03225806451613    0.02500000000000             8
    0.47727272727273    0.03225806451613    0.02500000000000             8
    0.02272727272727    0.06451612903226    0.02500000000000             8
    0.06818181818182    0.06451612903226    0.02500000000000             8
    0.11363636363637    0.06451612903226    0.02500000000000             8
    0.15909090909091    0.06451612903226    0.02500000000000             8
    0.20454545454545    0.06451612903226    0.02500000000000             8
    0.25000000000000    0.06451612903226    0.02500000000000             8
    0.29545454545455    0.06451612903226    0.02500000000000             8
    0.34090909090909    0.06451612903226    0.02500000000000             8
    0.38636363636363    0.06451612903226    0.02500000000000             8
    0.43181818181818    0.06451612903226    0.02500000000000             8
    0.47727272727273    0.06451612903226    0.02500000000000             8
    0.02272727272727    0.09677419354838    0.02500000000000             8
    0.06818181818182    0.09677419354838    0.02500000000000             8
    0.11363636363637    0.09677419354838    0.02500000000000             8
    0.15909090909091    0.09677419354838    0.02500000000000             8
    0.20454545454545    0.09677419354838    0.02500000000000             8
    0.25000000000000    0.09677419354838    0.02500000000000             8
    0.29545454545455    0.09677419354838    0.02500000000000             8
    0.34090909090909    0.09677419354838    0.02500000000000             8
    0.38636363636363    0.09677419354838    0.02500000000000             8
    0.43181818181818    0.09677419354838    0.02500000000000             8
    0.47727272727273    0.09677419354838    0.02500000000000             8
    0.02272727272727    0.12903225806452    0.02500000000000             8
    0.06818181818182    0.12903225806452    0.02500000000000             8
    0.11363636363637    0.12903225806452    0.02500000000000             8
    0.15909090909091    0.12903225806452    0.02500000000000             8
    0.20454545454545    0.12903225806452    0.02500000000000             8
    0.25000000000000    0.12903225806452    0.02500000000000             8
    0.29545454545455    0.12903225806452    0.02500000000000             8
    0.34090909090909    0.12903225806452    0.02500000000000             8
    0.38636363636363    0.12903225806452    0.02500000000000             8
    0.43181818181818    0.12903225806452    0.02500000000000             8
    0.47727272727273    0.12903225806452    0.02500000000000             8
    0.02272727272727    0.16129032258065    0.02500000000000             8
    0.06818181818182    0.16129032258065    0.02500000000000             8
    0.11363636363637    0.16129032258065    0.02500000000000             8
    0.15909090909091    0.16129032258065    0.02500000000000             8
    0.20454545454545    0.16129032258065    0.02500000000000             8
    0.25000000000000    0.16129032258065    0.02500000000000             8
    0.29545454545455    0.16129032258065    0.02500000000000             8
    0.34090909090909    0.16129032258065    0.02500000000000             8
    0.38636363636363    0.16129032258065    0.02500000000000             8
    0.43181818181818    0.16129032258065    0.02500000000000             8
    0.47727272727273    0.16129032258065    0.02500000000000             8
    0.02272727272727    0.19354838709678    0.02500000000000             8
    0.06818181818182    0.19354838709678    0.02500000000000             8
    0.11363636363637    0.19354838709678    0.02500000000000             8
    0.15909090909091    0.19354838709678    0.02500000000000             8
    0.20454545454545    0.19354838709678    0.02500000000000             8
    0.25000000000000    0.19354838709678    0.02500000000000             8
    0.29545454545455    0.19354838709678    0.02500000000000             8
    0.34090909090909    0.19354838709678    0.02500000000000             8
    0.38636363636363    0.19354838709678    0.02500000000000             8
    0.43181818181818    0.19354838709678    0.02500000000000             8
    0.47727272727273    0.19354838709678    0.02500000000000             8
    0.02272727272727    0.22580645161290    0.02500000000000             8
    0.06818181818182    0.22580645161290    0.02500000000000             8
    0.11363636363637    0.22580645161290    0.02500000000000             8
    0.15909090909091    0.22580645161290    0.02500000000000             8
    0.20454545454545    0.22580645161290    0.02500000000000             8
    0.25000000000000    0.22580645161290    0.02500000000000             8
    0.29545454545455    0.22580645161290    0.02500000000000             8
    0.34090909090909    0.22580645161290    0.02500000000000             8
    0.38636363636363    0.22580645161290    0.02500000000000             8
    0.43181818181818    0.22580645161290    0.02500000000000             8
    0.47727272727273    0.22580645161290    0.02500000000000             8
    0.02272727272727    0.25806451612903    0.02500000000000             8
    0.06818181818182    0.25806451612903    0.02500000000000             8
    0.11363636363637    0.25806451612903    0.02500000000000             8
    0.15909090909091    0.25806451612903    0.02500000000000             8
    0.20454545454545    0.25806451612903    0.02500000000000             8
    0.25000000000000    0.25806451612903    0.02500000000000             8
    0.29545454545455    0.25806451612903    0.02500000000000             8
    0.34090909090909    0.25806451612903    0.02500000000000             8
    0.38636363636363    0.25806451612903    0.02500000000000             8
    0.43181818181818    0.25806451612903    0.02500000000000             8
    0.47727272727273    0.25806451612903    0.02500000000000             8
    0.02272727272727    0.29032258064516    0.02500000000000             8
    0.06818181818182    0.29032258064516    0.02500000000000             8
    0.11363636363637    0.29032258064516    0.02500000000000             8
    0.15909090909091    0.29032258064516    0.02500000000000             8
    0.20454545454545    0.29032258064516    0.02500000000000             8
    0.25000000000000    0.29032258064516    0.02500000000000             8
    0.29545454545455    0.29032258064516    0.02500000000000             8
    0.34090909090909    0.29032258064516    0.02500000000000             8
    0.38636363636363    0.29032258064516    0.02500000000000             8
    0.43181818181818    0.29032258064516    0.02500000000000             8
    0.47727272727273    0.29032258064516    0.02500000000000             8
    0.02272727272727    0.32258064516129    0.02500000000000             8
    0.06818181818182    0.32258064516129    0.02500000000000             8
    0.11363636363637    0.32258064516129    0.02500000000000             8
    0.15909090909091    0.32258064516129    0.02500000000000             8
    0.20454545454545    0.32258064516129    0.02500000000000             8
    0.25000000000000    0.32258064516129    0.02500000000000             8
    0.29545454545455    0.32258064516129    0.02500000000000             8
    0.34090909090909    0.32258064516129    0.02500000000000             8
    0.38636363636363    0.32258064516129    0.02500000000000             8
    0.43181818181818    0.32258064516129    0.02500000000000             8
    0.47727272727273    0.32258064516129    0.02500000000000             8
    0.02272727272727    0.35483870967742    0.02500000000000             8
    0.06818181818182    0.35483870967742    0.02500000000000             8
    0.11363636363637    0.35483870967742    0.02500000000000             8
    0.15909090909091    0.35483870967742    0.02500000000000             8
    0.20454545454545    0.35483870967742    0.02500000000000             8
    0.25000000000000    0.35483870967742    0.02500000000000             8
    0.29545454545455    0.35483870967742    0.02500000000000             8
    0.34090909090909    0.35483870967742    0.02500000000000             8
    0.38636363636363    0.35483870967742    0.02500000000000             8
    0.43181818181818    0.35483870967742    0.02500000000000             8
    0.47727272727273    0.35483870967742    0.02500000000000             8
    0.02272727272727    0.38709677419355    0.02500000000000             8
    0.06818181818182    0.38709677419355    0.02500000000000             8
    0.11363636363637    0.38709677419355    0.02500000000000             8
    0.15909090909091    0.38709677419355    0.02500000000000             8
    0.20454545454545    0.38709677419355    0.02500000000000             8
    0.25000000000000    0.38709677419355    0.02500000000000             8
    0.29545454545455    0.38709677419355    0.02500000000000             8
    0.34090909090909    0.38709677419355    0.02500000000000             8
    0.38636363636363    0.38709677419355    0.02500000000000             8
    0.43181818181818    0.38709677419355    0.02500000000000             8
    0.47727272727273    0.38709677419355    0.02500000000000             8
    0.02272727272727    0.41935483870968    0.02500000000000             8
    0.06818181818182    0.41935483870968    0.02500000000000             8
    0.11363636363637    0.41935483870968    0.02500000000000             8
    0.15909090909091    0.41935483870968    0.02500000000000             8
    0.20454545454545    0.41935483870968    0.02500000000000             8
    0.25000000000000    0.41935483870968    0.02500000000000             8
    0.29545454545455    0.41935483870968    0.02500000000000             8
    0.34090909090909    0.41935483870968    0.02500000000000             8
    0.38636363636363    0.41935483870968    0.02500000000000             8
    0.43181818181818    0.41935483870968    0.02500000000000             8
    0.47727272727273    0.41935483870968    0.02500000000000             8
    0.02272727272727    0.45161290322581    0.02500000000000             8
    0.06818181818182    0.45161290322581    0.02500000000000             8
    0.11363636363637    0.45161290322581    0.02500000000000             8
    0.15909090909091    0.45161290322581    0.02500000000000             8
    0.20454545454545    0.45161290322581    0.02500000000000             8
    0.25000000000000    0.45161290322581    0.02500000000000             8
    0.29545454545455    0.45161290322581    0.02500000000000             8
    0.34090909090909    0.45161290322581    0.02500000000000             8
    0.38636363636363    0.45161290322581    0.02500000000000             8
    0.43181818181818    0.45161290322581    0.02500000000000             8
    0.47727272727273    0.45161290322581    0.02500000000000             8
    0.02272727272727    0.48387096774194    0.02500000000000             8
    0.06818181818182    0.48387096774194    0.02500000000000             8
    0.11363636363637    0.48387096774194    0.02500000000000             8
    0.15909090909091    0.48387096774194    0.02500000000000             8
    0.20454545454545    0.48387096774194    0.02500000000000             8
    0.25000000000000    0.48387096774194    0.02500000000000             8
    0.29545454545455    0.48387096774194    0.02500000000000             8
    0.34090909090909    0.48387096774194    0.02500000000000             8
    0.38636363636363    0.48387096774194    0.02500000000000             8
    0.43181818181818    0.48387096774194    0.02500000000000             8
    0.47727272727273    0.48387096774194    0.02500000000000             8
    0.02272727272727    0.00000000000000    0.07500000000000             4
    0.06818181818182    0.00000000000000    0.07500000000000             4
    0.11363636363637    0.00000000000000    0.07500000000000             4
    0.15909090909091    0.00000000000000    0.07500000000000             4
    0.20454545454545    0.00000000000000    0.07500000000000             4
    0.25000000000000    0.00000000000000    0.07500000000000             4
    0.29545454545455    0.00000000000000    0.07500000000000             4
    0.34090909090909    0.00000000000000    0.07500000000000             4
    0.38636363636363    0.00000000000000    0.07500000000000             4
    0.43181818181818    0.00000000000000    0.07500000000000             4
    0.47727272727273    0.00000000000000    0.07500000000000             4
    0.02272727272727    0.03225806451613    0.07500000000000             8
    0.06818181818182    0.03225806451613    0.07500000000000             8
    0.11363636363637    0.03225806451613    0.07500000000000             8
    0.15909090909091    0.03225806451613    0.07500000000000             8
    0.20454545454545    0.03225806451613    0.07500000000000             8
    0.25000000000000    0.03225806451613    0.07500000000000             8
    0.29545454545455    0.03225806451613    0.07500000000000             8
    0.34090909090909    0.03225806451613    0.07500000000000             8
    0.38636363636363    0.03225806451613    0.07500000000000             8
    0.43181818181818    0.03225806451613    0.07500000000000             8
    0.47727272727273    0.03225806451613    0.07500000000000             8
    0.02272727272727    0.06451612903226    0.07500000000000             8
    0.06818181818182    0.06451612903226    0.07500000000000             8
    0.11363636363637    0.06451612903226    0.07500000000000             8
    0.15909090909091    0.06451612903226    0.07500000000000             8
    0.20454545454545    0.06451612903226    0.07500000000000             8
    0.25000000000000    0.06451612903226    0.07500000000000             8
    0.29545454545455    0.06451612903226    0.07500000000000             8
    0.34090909090909    0.06451612903226    0.07500000000000             8
    0.38636363636363    0.06451612903226    0.07500000000000             8
    0.43181818181818    0.06451612903226    0.07500000000000             8
    0.47727272727273    0.06451612903226    0.07500000000000             8
    0.02272727272727    0.09677419354838    0.07500000000000             8
    0.06818181818182    0.09677419354838    0.07500000000000             8
    0.11363636363637    0.09677419354838    0.07500000000000             8
    0.15909090909091    0.09677419354838    0.07500000000000             8
    0.20454545454545    0.09677419354838    0.07500000000000             8
    0.25000000000000    0.09677419354838    0.07500000000000             8
    0.29545454545455    0.09677419354838    0.07500000000000             8
    0.34090909090909    0.09677419354838    0.07500000000000             8
    0.38636363636363    0.09677419354838    0.07500000000000             8
    0.43181818181818    0.09677419354838    0.07500000000000             8
    0.47727272727273    0.09677419354838    0.07500000000000             8
    0.02272727272727    0.12903225806452    0.07500000000000             8
    0.06818181818182    0.12903225806452    0.07500000000000             8
    0.11363636363637    0.12903225806452    0.07500000000000             8
    0.15909090909091    0.12903225806452    0.07500000000000             8
    0.20454545454545    0.12903225806452    0.07500000000000             8
    0.25000000000000    0.12903225806452    0.07500000000000             8
    0.29545454545455    0.12903225806452    0.07500000000000             8
    0.34090909090909    0.12903225806452    0.07500000000000             8
    0.38636363636363    0.12903225806452    0.07500000000000             8
    0.43181818181818    0.12903225806452    0.07500000000000             8
    0.47727272727273    0.12903225806452    0.07500000000000             8
    0.02272727272727    0.16129032258065    0.07500000000000             8
    0.06818181818182    0.16129032258065    0.07500000000000             8
    0.11363636363637    0.16129032258065    0.07500000000000             8
    0.15909090909091    0.16129032258065    0.07500000000000             8
    0.20454545454545    0.16129032258065    0.07500000000000             8
    0.25000000000000    0.16129032258065    0.07500000000000             8
    0.29545454545455    0.16129032258065    0.07500000000000             8
    0.34090909090909    0.16129032258065    0.07500000000000             8
    0.38636363636363    0.16129032258065    0.07500000000000             8
    0.43181818181818    0.16129032258065    0.07500000000000             8
    0.47727272727273    0.16129032258065    0.07500000000000             8
    0.02272727272727    0.19354838709678    0.07500000000000             8
    0.06818181818182    0.19354838709678    0.07500000000000             8
    0.11363636363637    0.19354838709678    0.07500000000000             8
    0.15909090909091    0.19354838709678    0.07500000000000             8
    0.20454545454545    0.19354838709678    0.07500000000000             8
    0.25000000000000    0.19354838709678    0.07500000000000             8
    0.29545454545455    0.19354838709678    0.07500000000000             8
    0.34090909090909    0.19354838709678    0.07500000000000             8
    0.38636363636363    0.19354838709678    0.07500000000000             8
    0.43181818181818    0.19354838709678    0.07500000000000             8
    0.47727272727273    0.19354838709678    0.07500000000000             8
    0.02272727272727    0.22580645161290    0.07500000000000             8
    0.06818181818182    0.22580645161290    0.07500000000000             8
    0.11363636363637    0.22580645161290    0.07500000000000             8
    0.15909090909091    0.22580645161290    0.07500000000000             8
    0.20454545454545    0.22580645161290    0.07500000000000             8
    0.25000000000000    0.22580645161290    0.07500000000000             8
    0.29545454545455    0.22580645161290    0.07500000000000             8
    0.34090909090909    0.22580645161290    0.07500000000000             8
    0.38636363636363    0.22580645161290    0.07500000000000             8
    0.43181818181818    0.22580645161290    0.07500000000000             8
    0.47727272727273    0.22580645161290    0.07500000000000             8
    0.02272727272727    0.25806451612903    0.07500000000000             8
    0.06818181818182    0.25806451612903    0.07500000000000             8
    0.11363636363637    0.25806451612903    0.07500000000000             8
    0.15909090909091    0.25806451612903    0.07500000000000             8
    0.20454545454545    0.25806451612903    0.07500000000000             8
    0.25000000000000    0.25806451612903    0.07500000000000             8
    0.29545454545455    0.25806451612903    0.07500000000000             8
    0.34090909090909    0.25806451612903    0.07500000000000             8
    0.38636363636363    0.25806451612903    0.07500000000000             8
    0.43181818181818    0.25806451612903    0.07500000000000             8
    0.47727272727273    0.25806451612903    0.07500000000000             8
    0.02272727272727    0.29032258064516    0.07500000000000             8
    0.06818181818182    0.29032258064516    0.07500000000000             8
    0.11363636363637    0.29032258064516    0.07500000000000             8
    0.15909090909091    0.29032258064516    0.07500000000000             8
    0.20454545454545    0.29032258064516    0.07500000000000             8
    0.25000000000000    0.29032258064516    0.07500000000000             8
    0.29545454545455    0.29032258064516    0.07500000000000             8
    0.34090909090909    0.29032258064516    0.07500000000000             8
    0.38636363636363    0.29032258064516    0.07500000000000             8
    0.43181818181818    0.29032258064516    0.07500000000000             8
    0.47727272727273    0.29032258064516    0.07500000000000             8
    0.02272727272727    0.32258064516129    0.07500000000000             8
    0.06818181818182    0.32258064516129    0.07500000000000             8
    0.11363636363637    0.32258064516129    0.07500000000000             8
    0.15909090909091    0.32258064516129    0.07500000000000             8
    0.20454545454545    0.32258064516129    0.07500000000000             8
    0.25000000000000    0.32258064516129    0.07500000000000             8
    0.29545454545455    0.32258064516129    0.07500000000000             8
    0.34090909090909    0.32258064516129    0.07500000000000             8
    0.38636363636363    0.32258064516129    0.07500000000000             8
    0.43181818181818    0.32258064516129    0.07500000000000             8
    0.47727272727273    0.32258064516129    0.07500000000000             8
    0.02272727272727    0.35483870967742    0.07500000000000             8
    0.06818181818182    0.35483870967742    0.07500000000000             8
    0.11363636363637    0.35483870967742    0.07500000000000             8
    0.15909090909091    0.35483870967742    0.07500000000000             8
    0.20454545454545    0.35483870967742    0.07500000000000             8
    0.25000000000000    0.35483870967742    0.07500000000000             8
    0.29545454545455    0.35483870967742    0.07500000000000             8
    0.34090909090909    0.35483870967742    0.07500000000000             8
    0.38636363636363    0.35483870967742    0.07500000000000             8
    0.43181818181818    0.35483870967742    0.07500000000000             8
    0.47727272727273    0.35483870967742    0.07500000000000             8
    0.02272727272727    0.38709677419355    0.07500000000000             8
    0.06818181818182    0.38709677419355    0.07500000000000             8
    0.11363636363637    0.38709677419355    0.07500000000000             8
    0.15909090909091    0.38709677419355    0.07500000000000             8
    0.20454545454545    0.38709677419355    0.07500000000000             8
    0.25000000000000    0.38709677419355    0.07500000000000             8
    0.29545454545455    0.38709677419355    0.07500000000000             8
    0.34090909090909    0.38709677419355    0.07500000000000             8
    0.38636363636363    0.38709677419355    0.07500000000000             8
    0.43181818181818    0.38709677419355    0.07500000000000             8
    0.47727272727273    0.38709677419355    0.07500000000000             8
    0.02272727272727    0.41935483870968    0.07500000000000             8
    0.06818181818182    0.41935483870968    0.07500000000000             8
    0.11363636363637    0.41935483870968    0.07500000000000             8
    0.15909090909091    0.41935483870968    0.07500000000000             8
    0.20454545454545    0.41935483870968    0.07500000000000             8
    0.25000000000000    0.41935483870968    0.07500000000000             8
    0.29545454545455    0.41935483870968    0.07500000000000             8
    0.34090909090909    0.41935483870968    0.07500000000000             8
    0.38636363636363    0.41935483870968    0.07500000000000             8
    0.43181818181818    0.41935483870968    0.07500000000000             8
    0.47727272727273    0.41935483870968    0.07500000000000             8
    0.02272727272727    0.45161290322581    0.07500000000000             8
    0.06818181818182    0.45161290322581    0.07500000000000             8
    0.11363636363637    0.45161290322581    0.07500000000000             8
    0.15909090909091    0.45161290322581    0.07500000000000             8
    0.20454545454545    0.45161290322581    0.07500000000000             8
    0.25000000000000    0.45161290322581    0.07500000000000             8
    0.29545454545455    0.45161290322581    0.07500000000000             8
    0.34090909090909    0.45161290322581    0.07500000000000             8
    0.38636363636363    0.45161290322581    0.07500000000000             8
    0.43181818181818    0.45161290322581    0.07500000000000             8
    0.47727272727273    0.45161290322581    0.07500000000000             8
    0.02272727272727    0.48387096774194    0.07500000000000             8
    0.06818181818182    0.48387096774194    0.07500000000000             8
    0.11363636363637    0.48387096774194    0.07500000000000             8
    0.15909090909091    0.48387096774194    0.07500000000000             8
    0.20454545454545    0.48387096774194    0.07500000000000             8
    0.25000000000000    0.48387096774194    0.07500000000000             8
    0.29545454545455    0.48387096774194    0.07500000000000             8
    0.34090909090909    0.48387096774194    0.07500000000000             8
    0.38636363636363    0.48387096774194    0.07500000000000             8
    0.43181818181818    0.48387096774194    0.07500000000000             8
    0.47727272727273    0.48387096774194    0.07500000000000             8
    0.02272727272727    0.00000000000000    0.12500000000000             4
    0.06818181818182    0.00000000000000    0.12500000000000             4
    0.11363636363637    0.00000000000000    0.12500000000000             4
    0.15909090909091    0.00000000000000    0.12500000000000             4
    0.20454545454545    0.00000000000000    0.12500000000000             4
    0.25000000000000    0.00000000000000    0.12500000000000             4
    0.29545454545455    0.00000000000000    0.12500000000000             4
    0.34090909090909    0.00000000000000    0.12500000000000             4
    0.38636363636363    0.00000000000000    0.12500000000000             4
    0.43181818181818    0.00000000000000    0.12500000000000             4
    0.47727272727273    0.00000000000000    0.12500000000000             4
    0.02272727272727    0.03225806451613    0.12500000000000             8
    0.06818181818182    0.03225806451613    0.12500000000000             8
    0.11363636363637    0.03225806451613    0.12500000000000             8
    0.15909090909091    0.03225806451613    0.12500000000000             8
    0.20454545454545    0.03225806451613    0.12500000000000             8
    0.25000000000000    0.03225806451613    0.12500000000000             8
    0.29545454545455    0.03225806451613    0.12500000000000             8
    0.34090909090909    0.03225806451613    0.12500000000000             8
    0.38636363636363    0.03225806451613    0.12500000000000             8
    0.43181818181818    0.03225806451613    0.12500000000000             8
    0.47727272727273    0.03225806451613    0.12500000000000             8
    0.02272727272727    0.06451612903226    0.12500000000000             8
    0.06818181818182    0.06451612903226    0.12500000000000             8
    0.11363636363637    0.06451612903226    0.12500000000000             8
    0.15909090909091    0.06451612903226    0.12500000000000             8
    0.20454545454545    0.06451612903226    0.12500000000000             8
    0.25000000000000    0.06451612903226    0.12500000000000             8
    0.29545454545455    0.06451612903226    0.12500000000000             8
    0.34090909090909    0.06451612903226    0.12500000000000             8
    0.38636363636363    0.06451612903226    0.12500000000000             8
    0.43181818181818    0.06451612903226    0.12500000000000             8
    0.47727272727273    0.06451612903226    0.12500000000000             8
    0.02272727272727    0.09677419354838    0.12500000000000             8
    0.06818181818182    0.09677419354838    0.12500000000000             8
    0.11363636363637    0.09677419354838    0.12500000000000             8
    0.15909090909091    0.09677419354838    0.12500000000000             8
    0.20454545454545    0.09677419354838    0.12500000000000             8
    0.25000000000000    0.09677419354838    0.12500000000000             8
    0.29545454545455    0.09677419354838    0.12500000000000             8
    0.34090909090909    0.09677419354838    0.12500000000000             8
    0.38636363636363    0.09677419354838    0.12500000000000             8
    0.43181818181818    0.09677419354838    0.12500000000000             8
    0.47727272727273    0.09677419354838    0.12500000000000             8
    0.02272727272727    0.12903225806452    0.12500000000000             8
    0.06818181818182    0.12903225806452    0.12500000000000             8
    0.11363636363637    0.12903225806452    0.12500000000000             8