  14  14   0   0
  0.1022266E+02  0.5697570E-09  0.4048305E-09  0.6204821E-09  0.5000000E-15
  1.000000000000000E-004
  CAR 
 Convergence                             
     17.96979540    -14.18614770  301      1.88234863      1.00000000
    -14.186  0.0000E+00  0.0000E+00
    -14.079  0.0000E+00  0.0000E+00
    -13.972  0.0000E+00  0.0000E+00
    -13.865  0.0000E+00  0.0000E+00
    -13.757  0.0000E+00  0.0000E+00
    -13.650  0.0000E+00  0.0000E+00
    -13.543  0.0000E+00  0.0000E+00
    -13.436  0.0000E+00  0.0000E+00
    -13.329  0.0000E+00  0.0000E+00
    -13.221  0.0000E+00  0.0000E+00
    -13.114  0.0000E+00  0.0000E+00
    -13.007  0.4603E-16  0.4934E-17
    -12.900  0.2980E-07  0.3195E-08
    -12.793  0.3822E-02  0.4096E-03
    -12.686  0.5087E+00  0.5493E-01
    -12.578  0.2391E+01  0.3112E+00
    -12.471  0.3565E+01  0.6933E+00
    -12.364  0.4372E+01  0.1162E+01
    -12.257  0.3539E+01  0.1541E+01
    -12.150  0.2735E+01  0.1834E+01
    -12.042  0.2751E+01  0.2129E+01
    -11.935  0.2505E+01  0.2398E+01
    -11.828  0.2771E+01  0.2695E+01
    -11.721  0.3426E+01  0.3062E+01
    -11.614  0.3535E+01  0.3441E+01
    -11.506  0.3116E+01  0.3775E+01
    -11.399  0.1669E+01  0.3954E+01
    -11.292  0.4225E+00  0.3999E+01
    -11.185  0.7298E-02  0.4000E+01
    -11.078  0.1773E-06  0.4000E+01
    -10.971  0.9470E-15  0.4000E+01
    -10.863  0.0000E+00  0.4000E+01
    -10.756  0.0000E+00  0.4000E+01
    -10.649  0.0000E+00  0.4000E+01
    -10.542  0.0000E+00  0.4000E+01
    -10.435  0.0000E+00  0.4000E+01
    -10.327  0.0000E+00  0.4000E+01
    -10.220  0.0000E+00  0.4000E+01
    -10.113  0.0000E+00  0.4000E+01
    -10.006  0.0000E+00  0.4000E+01
     -9.899  0.0000E+00  0.4000E+01
     -9.792  0.0000E+00  0.4000E+01
     -9.684  0.0000E+00  0.4000E+01
     -9.577  0.0000E+00  0.4000E+01
     -9.470  0.0000E+00  0.4000E+01
     -9.363  0.0000E+00  0.4000E+01
     -9.256  0.0000E+00  0.4000E+01
     -9.148  0.0000E+00  0.4000E+01
     -9.041  0.9482E-09  0.4000E+01
     -8.934  0.6251E-03  0.4000E+01
     -8.827  0.2765E+00  0.4030E+01
     -8.720  0.2092E+01  0.4254E+01
     -8.612  0.5335E+01  0.4826E+01
     -8.505  0.6990E+01  0.5575E+01
     -8.398  0.6296E+01  0.6250E+01
     -8.291  0.5326E+01  0.6821E+01
     -8.184  0.4836E+01  0.7339E+01
     -8.077  0.3872E+01  0.7754E+01
     -7.969  0.1665E+01  0.7933E+01
     -7.862  0.5767E+00  0.7994E+01
     -7.755  0.5181E-01  0.8000E+01
     -7.648  0.2389E-04  0.8000E+01
     -7.541  0.2679E-11  0.8000E+01
     -7.433  0.0000E+00  0.8000E+01
     -7.326  0.0000E+00  0.8000E+01
     -7.219  0.0000E+00  0.8000E+01
     -7.112  0.4791E-09  0.8000E+01
     -7.005  0.3939E-03  0.8000E+01
     -6.897  0.1127E+00  0.8012E+01
     -6.790  0.2578E+00  0.8040E+01
     -6.683  0.4260E+00  0.8085E+01
     -6.576  0.7661E+00  0.8168E+01
     -6.469  0.8505E+00  0.8259E+01
     -6.362  0.1444E+01  0.8413E+01
     -6.254  0.1961E+01  0.8624E+01
     -6.147  0.3056E+01  0.8951E+01
     -6.040  0.3785E+01  0.9357E+01
     -5.933  0.4115E+01  0.9798E+01
     -5.826  0.4046E+01  0.1023E+02
     -5.718  0.3864E+01  0.1065E+02
     -5.611  0.4073E+01  0.1108E+02
     -5.504  0.4220E+01  0.1153E+02
     -5.397  0.4547E+01  0.1202E+02
     -5.290  0.4601E+01  0.1252E+02
     -5.182  0.4491E+01  0.1300E+02
     -5.075  0.3870E+01  0.1341E+02
     -4.968  0.3227E+01  0.1376E+02
     -4.861  0.2954E+01  0.1407E+02
     -4.754  0.2334E+01  0.1432E+02
     -4.647  0.2896E+01  0.1463E+02
     -4.539  0.3369E+01  0.1500E+02
     -4.432  0.3470E+01  0.1537E+02
     -4.325  0.3335E+01  0.1573E+02
     -4.218  0.2955E+01  0.1604E+02
     -4.111  0.2908E+01  0.1635E+02
     -4.003  0.2944E+01  0.1667E+02
     -3.896  0.2862E+01  0.1698E+02
     -3.789  0.3118E+01  0.1731E+02
     -3.682  0.2877E+01  0.1762E+02
     -3.575  0.2705E+01  0.1791E+02
     -3.467  0.3066E+01  0.1824E+02
     -3.360  0.2640E+01  0.1852E+02
     -3.253  0.2859E+01  0.1883E+02
     -3.146  0.2748E+01  0.1912E+02
     -3.039  0.2738E+01  0.1941E+02
     -2.932  0.3048E+01  0.1974E+02
     -2.824  0.2976E+01  0.2006E+02
     -2.717  0.2432E+01  0.2032E+02
     -2.610  0.2655E+01  0.2061E+02
     -2.503  0.3020E+01  0.2093E+02
     -2.396  0.2987E+01  0.2125E+02
     -2.288  0.3193E+01  0.2159E+02
     -2.181  0.4008E+01  0.2202E+02
     -2.074  0.3656E+01  0.2241E+02
     -1.967  0.3269E+01  0.2276E+02
     -1.860  0.5117E+01  0.2331E+02
     -1.753  0.5573E+01  0.2391E+02
     -1.645  0.5608E+01  0.2451E+02
     -1.538  0.6183E+01  0.2517E+02
     -1.431  0.6114E+01  0.2583E+02
     -1.324  0.5572E+01  0.2643E+02
     -1.217  0.4683E+01  0.2693E+02
     -1.109  0.6498E+01  0.2762E+02
     -1.002  0.3992E+01  0.2805E+02
     -0.895  0.2271E+01  0.2830E+02
     -0.788  0.2699E+01  0.2858E+02
     -0.681  0.2880E+01  0.2889E+02
     -0.573  0.4515E+01  0.2938E+02
     -0.466  0.6860E+01  0.3011E+02
     -0.359  0.5660E+01  0.3072E+02
     -0.252  0.6700E+01  0.3144E+02
     -0.145  0.6361E+01  0.3212E+02
     -0.038  0.6746E+01  0.3284E+02
      0.070  0.6763E+01  0.3357E+02
      0.177  0.6294E+01  0.3424E+02
      0.284  0.8808E+01  0.3519E+02
      0.391  0.7993E+01  0.3604E+02
      0.498  0.8696E+01  0.3697E+02
      0.606  0.5254E+01  0.3754E+02
      0.713  0.2941E+01  0.3785E+02
      0.820  0.3288E+01  0.3821E+02
      0.927  0.3588E+01  0.3859E+02
      1.034  0.3563E+01  0.3897E+02
      1.142  0.2792E+01  0.3927E+02
      1.249  0.3389E+01  0.3963E+02
      1.356  0.4496E+01  0.4012E+02
      1.463  0.3782E+01  0.4052E+02
      1.570  0.3722E+01  0.4092E+02
      1.677  0.4578E+01  0.4141E+02
      1.785  0.3239E+01  0.4176E+02
      1.892  0.2480E+01  0.4202E+02
      1.999  0.2662E+01  0.4231E+02
      2.106  0.2093E+01  0.4253E+02
      2.213  0.2652E+01  0.4282E+02
      2.321  0.2574E+01  0.4309E+02
      2.428  0.1939E+01  0.4330E+02
      2.535  0.8540E+00  0.4339E+02
      2.642  0.3783E+00  0.4343E+02
      2.749  0.5727E+00  0.4350E+02
      2.857  0.4197E+00  0.4354E+02
      2.964  0.3055E+00  0.4357E+02
      3.071  0.7575E+00  0.4365E+02
      3.178  0.1015E+01  0.4376E+02
      3.285  0.5386E+00  0.4382E+02
      3.392  0.1312E-01  0.4382E+02
      3.500  0.1309E+00  0.4384E+02
      3.607  0.3957E+00  0.4388E+02
      3.714  0.3303E+00  0.4391E+02
      3.821  0.3722E+00  0.4395E+02
      3.928  0.4023E+00  0.4400E+02
      4.036  0.2664E-01  0.4400E+02
      4.143  0.2555E-04  0.4400E+02
      4.250  0.3018E-01  0.4400E+02
      4.357  0.1752E+00  0.4402E+02
      4.464  0.4014E+00  0.4407E+02
      4.571  0.4691E+00  0.4412E+02
      4.679  0.6327E+00  0.4418E+02
      4.786  0.8878E+00  0.4428E+02
      4.893  0.8409E+00  0.4437E+02
      5.000  0.8576E+00  0.4446E+02
      5.107  0.1276E+01  0.4460E+02
      5.215  0.1154E+01  0.4472E+02
      5.322  0.1630E+01  0.4490E+02
      5.429  0.2187E+01  0.4513E+02
      5.536  0.2488E+01  0.4540E+02
      5.643  0.2790E+01  0.4570E+02
      5.751  0.3362E+01  0.4606E+02
      5.858  0.3222E+01  0.4640E+02
      5.965  0.4308E+01  0.4686E+02
      6.072  0.4762E+01  0.4737E+02
      6.179  0.4047E+01  0.4781E+02
      6.286  0.4622E+01  0.4830E+02
      6.394  0.4162E+01  0.4875E+02
      6.501  0.4013E+01  0.4918E+02
      6.608  0.4483E+01  0.4966E+02
      6.715  0.3229E+01  0.5001E+02
      6.822  0.3995E+01  0.5043E+02
      6.930  0.4612E+01  0.5093E+02
      7.037  0.4554E+01  0.5142E+02
      7.144  0.4341E+01  0.5188E+02
      7.251  0.5598E+01  0.5248E+02
      7.358  0.4928E+01  0.5301E+02
      7.466  0.4455E+01  0.5349E+02
      7.573  0.4194E+01  0.5394E+02
      7.680  0.3568E+01  0.5432E+02
      7.787  0.3123E+01  0.5465E+02
      7.894  0.3011E+01  0.5498E+02
      8.001  0.2977E+01  0.5530E+02
      8.109  0.4168E+01  0.5574E+02
      8.216  0.3891E+01  0.5616E+02
      8.323  0.3693E+01  0.5656E+02
      8.430  0.3992E+01  0.5698E+02
      8.537  0.4218E+01  0.5744E+02
      8.645  0.4461E+01  0.5791E+02
      8.752  0.4226E+01  0.5837E+02
      8.859  0.5272E+01  0.5893E+02
      8.966  0.4933E+01  0.5946E+02
      9.073  0.5292E+01  0.6003E+02
      9.181  0.5236E+01  0.6059E+02
      9.288  0.4974E+01  0.6112E+02
      9.395  0.4688E+01  0.6162E+02
      9.502  0.4372E+01  0.6209E+02
      9.609  0.5104E+01  0.6264E+02
      9.716  0.5028E+01  0.6318E+02
      9.824  0.5299E+01  0.6375E+02
      9.931  0.4481E+01  0.6423E+02
     10.038  0.3639E+01  0.6462E+02
     10.145  0.5178E+01  0.6517E+02
     10.252  0.4716E+01  0.6568E+02
     10.360  0.4121E+01  0.6612E+02
     10.467  0.5410E+01  0.6670E+02
     10.574  0.5812E+01  0.6732E+02
     10.681  0.4067E+01  0.6776E+02
     10.788  0.3887E+01  0.6818E+02
     10.895  0.3239E+01  0.6852E+02
     11.003  0.4669E+01  0.6902E+02
     11.110  0.5478E+01  0.6961E+02
     11.217  0.6197E+01  0.7027E+02
     11.324  0.5995E+01  0.7092E+02
     11.431  0.5278E+01  0.7148E+02
     11.539  0.4309E+01  0.7194E+02
     11.646  0.4474E+01  0.7242E+02
     11.753  0.4936E+01  0.7295E+02
     11.860  0.4807E+01  0.7347E+02
     11.967  0.6033E+01  0.7412E+02
     12.075  0.5963E+01  0.7475E+02
     12.182  0.5997E+01  0.7540E+02
     12.289  0.5611E+01  0.7600E+02
     12.396  0.5006E+01  0.7654E+02
     12.503  0.5691E+01  0.7715E+02
     12.610  0.5987E+01  0.7779E+02
     12.718  0.6016E+01  0.7843E+02
     12.825  0.5893E+01  0.7906E+02
     12.932  0.5865E+01  0.7969E+02
     13.039  0.5598E+01  0.8029E+02
     13.146  0.6349E+01  0.8097E+02
     13.254  0.6268E+01  0.8164E+02
     13.361  0.5392E+01  0.8222E+02
     13.468  0.6132E+01  0.8288E+02
     13.575  0.5349E+01  0.8345E+02
     13.682  0.4812E+01  0.8397E+02
     13.790  0.6134E+01  0.8463E+02
     13.897  0.5523E+01  0.8522E+02
     14.004  0.5346E+01  0.8579E+02
     14.111  0.5476E+01  0.8638E+02
     14.218  0.4685E+01  0.8688E+02
     14.325  0.4910E+01  0.8741E+02
     14.433  0.5014E+01  0.8794E+02
     14.540  0.4960E+01  0.8848E+02
     14.647  0.5273E+01  0.8904E+02
     14.754  0.5169E+01  0.8960E+02
     14.861  0.4093E+01  0.9003E+02
     14.969  0.5076E+01  0.9058E+02
     15.076  0.6184E+01  0.9124E+02
     15.183  0.5644E+01  0.9185E+02
     15.290  0.5678E+01  0.9245E+02
     15.397  0.6026E+01  0.9310E+02
     15.505  0.5737E+01  0.9372E+02
     15.612  0.5956E+01  0.9435E+02
     15.719  0.4595E+01  0.9485E+02
     15.826  0.2473E+01  0.9511E+02
     15.933  0.2706E+01  0.9540E+02
     16.040  0.1859E+01  0.9560E+02
     16.148  0.1144E+01  0.9572E+02
     16.255  0.8946E+00  0.9582E+02
     16.362  0.6945E+00  0.9589E+02
     16.469  0.8129E+00  0.9598E+02
     16.576  0.1770E+00  0.9600E+02
     16.684  0.1686E-02  0.9600E+02
     16.791  0.2080E-07  0.9600E+02
     16.898  0.3946E-16  0.9600E+02
     17.005  0.0000E+00  0.9600E+02
     17.112  0.0000E+00  0.9600E+02
     17.219  0.0000E+00  0.9600E+02
     17.327  0.0000E+00  0.9600E+02
     17.434  0.0000E+00  0.9600E+02
     17.541  0.0000E+00  0.9600E+02
     17.648  0.0000E+00  0.9600E+02
     17.755  0.0000E+00  0.9600E+02
     17.863  0.0000E+00  0.9600E+02
     17.970  0.0000E+00  0.9600E+02
