       N       E                     dE             d eps       ncg     rms          rms(c)
DAV:   1     0.139545032994E+03    0.13955E+03   -0.25719E+04120960   0.123E+03
DAV:   2    -0.888176512257E+02   -0.22836E+03   -0.21165E+03161208   0.203E+02
DAV:   3    -0.975939604113E+02   -0.87763E+01   -0.87007E+01180792   0.351E+01
DAV:   4    -0.976483233790E+02   -0.54363E-01   -0.54360E-01135576   0.318E+00
DAV:   5    -0.976488804956E+02   -0.55712E-03   -0.55710E-03180936   0.306E-01    0.123E+01
DAV:   6    -0.922344401382E+02    0.54144E+01   -0.39476E+00174960   0.658E+00    0.679E+00
DAV:   7    -0.905834709441E+02    0.16510E+01   -0.32099E+00180360   0.586E+00    0.172E+00
DAV:   8    -0.905945500570E+02   -0.11079E-01   -0.22973E-01132864   0.166E+00    0.751E-01
