 running   24 mpi-ranks, with    1 threads/rank, on    1 nodes
 distrk:  each k-point on   24 cores,    1 groups
 distr:  one band on    1 cores,   24 groups
 vasp.6.4.3 19Mar24 (build May 31 2024 16:31:43) complex                        
  
 POSCAR found type information on POSCAR B 
 POSCAR found :  1 types and      14 ions
 Reading from existing POTCAR
 scaLAPACK will be used
 Reading from existing POTCAR
 LDA part: xc-table for (Slater+PW92), standard interpolation
 POSCAR, INCAR and KPOINTS ok, starting setup
 FFT: planning ... GRIDC
 FFT: planning ... GRID_SOFT
 FFT: planning ... GRID
 WAVECAR not read
 entering main loop
       N       E                     dE             d eps       ncg     rms          rms(c)
DAV:   1     0.139545032994E+03    0.13955E+03   -0.25719E+04120960   0.123E+03
DAV:   2    -0.888176512257E+02   -0.22836E+03   -0.21165E+03161208   0.203E+02
DAV:   3    -0.975939604113E+02   -0.87763E+01   -0.87007E+01180792   0.351E+01
DAV:   4    -0.976483233790E+02   -0.54363E-01   -0.54360E-01135576   0.318E+00
DAV:   5    -0.976488804956E+02   -0.55712E-03   -0.55710E-03180936   0.306E-01    0.123E+01
